<?xml version="1.0" encoding="UTF-8"?>

<!-- generated on 2023-01-28 14:06:07 by Eclipse SUMO sumo Version 1.15.0
<configuration xmlns:xsi="http://www.w3.org/2001/XMLSchema-instance" xsi:noNamespaceSchemaLocation="http://sumo.dlr.de/xsd/sumoConfiguration.xsd">

    <input>
        <net-file value="MASA.net.xml"/>
        <route-files value="plans/plans2000.rou.xml"/>
        <additional-files value="MASA.add.xml"/>
    </input>

    <output>
        <summary-output value="output/2000Veh/summary.xml"/>
        <tripinfo-output value="output/2000Veh/tripinfos.xml"/>
        <vehroute-output value="output/2000Veh/vehroute.xml"/>
        <statistic-output value="output/2000Veh/stats.xml"/>
    </output>

    <time>
        <begin value="0"/>
        <end value="86400"/>
        <step-length value="1"/>
    </time>

</configuration>
-->

<tripinfos xmlns:xsi="http://www.w3.org/2001/XMLSchema-instance" xsi:noNamespaceSchemaLocation="http://sumo.dlr.de/xsd/tripinfo_file.xsd">
    <tripinfo id="758_0" depart="21522.00" departLane="100_0" departPos="5.10" departSpeed="0.00" departDelay="0.00" arrival="21621.00" arrivalLane="256_0" arrivalPos="0.20" arrivalSpeed="8.22" duration="99.00" routeLength="614.23" waitingTime="18.00" waitingCount="1" stopTime="0.00" timeLoss="29.16" rerouteNo="1" devices="vehroute_758_0 tripinfo_758_0 routing_758_0" vType="car" speedFactor="1.06" vaporized=""/>
    <tripinfo id="28_0" depart="22978.00" departLane="272_0" departPos="4.65" departSpeed="0.00" departDelay="0.00" arrival="23152.00" arrivalLane="211_0" arrivalPos="23.00" arrivalSpeed="12.32" duration="174.00" routeLength="1931.71" waitingTime="0.00" waitingCount="0" stopTime="0.00" timeLoss="16.82" rerouteNo="1" devices="vehroute_28_0 tripinfo_28_0 routing_28_0" vType="car" speedFactor="0.94" vaporized=""/>
    <tripinfo id="546_0" depart="23149.00" departLane="324_0" departPos="0.91" departSpeed="0.00" departDelay="0.00" arrival="23165.00" arrivalLane="289_0" arrivalPos="0.20" arrivalSpeed="8.33" duration="16.00" routeLength="95.41" waitingTime="0.00" waitingCount="0" stopTime="0.00" timeLoss="3.36" rerouteNo="1" devices="vehroute_546_0 tripinfo_546_0 routing_546_0" vType="car" speedFactor="1.01" vaporized=""/>
    <tripinfo id="63_0" depart="23225.00" departLane="324_0" departPos="0.91" departSpeed="0.00" departDelay="0.00" arrival="23387.00" arrivalLane="382_0" arrivalPos="12.84" arrivalSpeed="7.36" duration="162.00" routeLength="919.99" waitingTime="24.00" waitingCount="1" stopTime="0.00" timeLoss="41.30" rerouteNo="1" devices="vehroute_63_0 tripinfo_63_0 routing_63_0" vType="car" speedFactor="1.08" vaporized=""/>
    <tripinfo id="882_0" depart="23300.00" departLane="145_0" departPos="5.10" departSpeed="0.00" departDelay="0.00" arrival="23457.00" arrivalLane="279_0" arrivalPos="36.82" arrivalSpeed="3.67" duration="157.00" routeLength="1040.86" waitingTime="0.00" waitingCount="0" stopTime="0.00" timeLoss="22.18" rerouteNo="1" devices="vehroute_882_0 tripinfo_882_0 routing_882_0" vType="car" speedFactor="1.03" vaporized=""/>
    <tripinfo id="307_0" depart="23499.00" departLane="47_0" departPos="1.70" departSpeed="0.00" departDelay="0.00" arrival="23796.00" arrivalLane="506_0" arrivalPos="12.78" arrivalSpeed="3.02" duration="297.00" routeLength="1421.12" waitingTime="0.00" waitingCount="0" stopTime="0.00" timeLoss="38.09" rerouteNo="1" devices="vehroute_307_0 tripinfo_307_0 routing_307_0" vType="car" speedFactor="0.83" vaporized=""/>
    <tripinfo id="924_0" depart="23542.00" departLane="201_0" departPos="5.10" departSpeed="0.00" departDelay="0.00" arrival="23868.00" arrivalLane="582_0" arrivalPos="9.17" arrivalSpeed="6.70" duration="326.00" routeLength="1359.52" waitingTime="27.00" waitingCount="1" stopTime="0.00" timeLoss="68.50" rerouteNo="1" devices="vehroute_924_0 tripinfo_924_0 routing_924_0" vType="car" speedFactor="1.05" vaporized=""/>
    <tripinfo id="436_0" depart="23946.00" departLane="356_0" departPos="5.10" departSpeed="0.00" departDelay="0.00" arrival="24041.00" arrivalLane="441_0" arrivalPos="3.75" arrivalSpeed="3.12" duration="95.00" routeLength="761.47" waitingTime="0.00" waitingCount="0" stopTime="0.00" timeLoss="12.58" rerouteNo="1" devices="vehroute_436_0 tripinfo_436_0 routing_436_0" vType="car" speedFactor="0.89" vaporized=""/>
    <tripinfo id="683_0" depart="24267.00" departLane="624_0" departPos="5.10" departSpeed="0.00" departDelay="0.00" arrival="24372.00" arrivalLane="594_0" arrivalPos="97.02" arrivalSpeed="10.92" duration="105.00" routeLength="837.53" waitingTime="0.00" waitingCount="0" stopTime="0.00" timeLoss="14.58" rerouteNo="1" devices="vehroute_683_0 tripinfo_683_0 routing_683_0" vType="car" speedFactor="0.86" vaporized=""/>
    <tripinfo id="274_0" depart="24169.00" departLane="198_0" departPos="5.10" departSpeed="0.00" departDelay="0.00" arrival="24442.00" arrivalLane="476_0" arrivalPos="0.20" arrivalSpeed="3.34" duration="273.00" routeLength="891.37" waitingTime="0.00" waitingCount="0" stopTime="0.00" timeLoss="44.91" rerouteNo="1" devices="vehroute_274_0 tripinfo_274_0 routing_274_0" vType="car" speedFactor="0.94" vaporized=""/>
    <tripinfo id="522_0" depart="24526.00" departLane="530_0" departPos="0.20" departSpeed="0.00" departDelay="0.00" arrival="24654.00" arrivalLane="107_0" arrivalPos="50.95" arrivalSpeed="4.25" duration="128.00" routeLength="899.95" waitingTime="0.00" waitingCount="0" stopTime="0.00" timeLoss="18.79" rerouteNo="1" devices="vehroute_522_0 tripinfo_522_0 routing_522_0" vType="car" speedFactor="1.09" vaporized=""/>
    <tripinfo id="775_0" depart="24758.00" departLane="533_0" departPos="5.10" departSpeed="0.00" departDelay="0.00" arrival="24848.00" arrivalLane="408_0" arrivalPos="0.20" arrivalSpeed="7.85" duration="90.00" routeLength="497.21" waitingTime="0.00" waitingCount="0" stopTime="0.00" timeLoss="11.98" rerouteNo="1" devices="vehroute_775_0 tripinfo_775_0 routing_775_0" vType="car" speedFactor="1.03" vaporized=""/>
    <tripinfo id="111_0" depart="24933.00" departLane="396_0" departPos="5.10" departSpeed="0.00" departDelay="0.00" arrival="25099.00" arrivalLane="285_0" arrivalPos="3.29" arrivalSpeed="4.07" duration="166.00" routeLength="574.73" waitingTime="0.00" waitingCount="0" stopTime="0.00" timeLoss="26.28" rerouteNo="1" devices="vehroute_111_0 tripinfo_111_0 routing_111_0" vType="car" speedFactor="0.99" vaporized=""/>
    <tripinfo id="982_0" depart="24890.00" departLane="568_0" departPos="0.20" departSpeed="0.00" departDelay="0.00" arrival="25129.00" arrivalLane="505_0" arrivalPos="12.78" arrivalSpeed="4.07" duration="239.00" routeLength="1259.99" waitingTime="10.00" waitingCount="1" stopTime="0.00" timeLoss="42.43" rerouteNo="1" devices="vehroute_982_0 tripinfo_982_0 routing_982_0" vType="car" speedFactor="1.05" vaporized=""/>
    <tripinfo id="523_0" depart="24925.00" departLane="81_0" departPos="5.10" departSpeed="0.00" departDelay="0.00" arrival="25246.00" arrivalLane="234_0" arrivalPos="99.51" arrivalSpeed="14.82" duration="321.00" routeLength="1924.26" waitingTime="38.00" waitingCount="1" stopTime="0.00" timeLoss="77.50" rerouteNo="1" devices="vehroute_523_0 tripinfo_523_0 routing_523_0" vType="car" speedFactor="1.12" vaporized=""/>
    <tripinfo id="466_0" depart="25245.00" departLane="97_0" departPos="5.10" departSpeed="0.00" departDelay="0.00" arrival="25286.00" arrivalLane="482_0" arrivalPos="6.94" arrivalSpeed="5.42" duration="41.00" routeLength="236.00" waitingTime="0.00" waitingCount="0" stopTime="0.00" timeLoss="6.64" rerouteNo="1" devices="vehroute_466_0 tripinfo_466_0 routing_466_0" vType="car" speedFactor="0.88" vaporized=""/>
    <tripinfo id="922_0" depart="25202.00" departLane="323_0" departPos="0.91" departSpeed="0.00" departDelay="0.00" arrival="25303.00" arrivalLane="354_0" arrivalPos="11.84" arrivalSpeed="7.41" duration="101.00" routeLength="509.28" waitingTime="20.00" waitingCount="1" stopTime="0.00" timeLoss="32.88" rerouteNo="1" devices="vehroute_922_0 tripinfo_922_0 routing_922_0" vType="car" speedFactor="0.93" vaporized=""/>
    <tripinfo id="660_0" depart="25269.00" departLane="520_0" departPos="5.10" departSpeed="0.00" departDelay="0.00" arrival="25459.00" arrivalLane="137_0" arrivalPos="11.23" arrivalSpeed="3.17" duration="190.00" routeLength="1173.27" waitingTime="0.00" waitingCount="0" stopTime="0.00" timeLoss="30.48" rerouteNo="1" devices="vehroute_660_0 tripinfo_660_0 routing_660_0" vType="car" speedFactor="0.94" vaporized=""/>
    <tripinfo id="748_0" depart="25324.00" departLane="47_0" departPos="1.70" departSpeed="0.00" departDelay="0.00" arrival="25533.00" arrivalLane="483_0" arrivalPos="9.16" arrivalSpeed="5.90" duration="209.00" routeLength="1078.99" waitingTime="0.00" waitingCount="0" stopTime="0.00" timeLoss="25.65" rerouteNo="1" devices="vehroute_748_0 tripinfo_748_0 routing_748_0" vType="car" speedFactor="0.94" vaporized=""/>
    <tripinfo id="208_0" depart="25383.00" departLane="332_0" departPos="5.10" departSpeed="0.00" departDelay="0.00" arrival="25565.00" arrivalLane="174_0" arrivalPos="80.97" arrivalSpeed="8.94" duration="182.00" routeLength="1230.60" waitingTime="0.00" waitingCount="0" stopTime="0.00" timeLoss="21.14" rerouteNo="1" devices="vehroute_208_0 tripinfo_208_0 routing_208_0" vType="car" speedFactor="1.16" vaporized=""/>
    <tripinfo id="995_0" depart="25514.00" departLane="240_0" departPos="2.42" departSpeed="0.00" departDelay="0.00" arrival="25615.00" arrivalLane="276_0" arrivalPos="7.29" arrivalSpeed="3.74" duration="101.00" routeLength="713.55" waitingTime="0.00" waitingCount="0" stopTime="0.00" timeLoss="10.66" rerouteNo="1" devices="vehroute_995_0 tripinfo_995_0 routing_995_0" vType="car" speedFactor="1.01" vaporized=""/>
    <tripinfo id="645_0" depart="25420.00" departLane="330_0" departPos="5.10" departSpeed="0.00" departDelay="0.00" arrival="25654.00" arrivalLane="7_0" arrivalPos="67.72" arrivalSpeed="3.33" duration="234.00" routeLength="1058.54" waitingTime="0.00" waitingCount="0" stopTime="0.00" timeLoss="31.80" rerouteNo="1" devices="vehroute_645_0 tripinfo_645_0 routing_645_0" vType="car" speedFactor="1.02" vaporized=""/>
    <tripinfo id="267_0" depart="25598.00" departLane="106_0" departPos="5.10" departSpeed="0.00" departDelay="0.00" arrival="25661.00" arrivalLane="197_0" arrivalPos="0.20" arrivalSpeed="3.51" duration="63.00" routeLength="191.80" waitingTime="0.00" waitingCount="0" stopTime="0.00" timeLoss="10.81" rerouteNo="1" devices="vehroute_267_0 tripinfo_267_0 routing_267_0" vType="car" speedFactor="0.89" vaporized=""/>
    <tripinfo id="515_0" depart="25699.00" departLane="361_0" departPos="4.95" departSpeed="0.00" departDelay="0.00" arrival="25829.00" arrivalLane="177_0" arrivalPos="8.01" arrivalSpeed="5.71" duration="130.00" routeLength="678.71" waitingTime="0.00" waitingCount="0" stopTime="0.00" timeLoss="16.76" rerouteNo="1" devices="vehroute_515_0 tripinfo_515_0 routing_515_0" vType="car" speedFactor="0.83" vaporized=""/>
    <tripinfo id="333_0" depart="25706.00" departLane="439_0" departPos="5.10" departSpeed="0.00" departDelay="0.00" arrival="25930.00" arrivalLane="205_0" arrivalPos="28.85" arrivalSpeed="10.82" duration="224.00" routeLength="1717.69" waitingTime="0.00" waitingCount="0" stopTime="0.00" timeLoss="27.07" rerouteNo="1" devices="vehroute_333_0 tripinfo_333_0 routing_333_0" vType="car" speedFactor="0.87" vaporized=""/>
    <tripinfo id="941_0" depart="25585.00" departLane="86_0" departPos="5.10" departSpeed="0.00" departDelay="0.00" arrival="25949.00" arrivalLane="530_0" arrivalPos="0.20" arrivalSpeed="2.29" duration="364.00" routeLength="1593.14" waitingTime="15.00" waitingCount="1" stopTime="0.00" timeLoss="72.47" rerouteNo="1" devices="vehroute_941_0 tripinfo_941_0 routing_941_0" vType="car" speedFactor="0.97" vaporized=""/>
    <tripinfo id="460_0" depart="25793.00" departLane="398_0" departPos="0.20" departSpeed="0.00" departDelay="0.00" arrival="25966.00" arrivalLane="183_0" arrivalPos="5.11" arrivalSpeed="8.21" duration="173.00" routeLength="951.90" waitingTime="0.00" waitingCount="0" stopTime="0.00" timeLoss="21.67" rerouteNo="1" devices="vehroute_460_0 tripinfo_460_0 routing_460_0" vType="car" speedFactor="1.13" vaporized=""/>
    <tripinfo id="324_0" depart="25929.00" departLane="357_0" departPos="5.10" departSpeed="0.00" departDelay="0.00" arrival="26001.00" arrivalLane="521_0" arrivalPos="41.54" arrivalSpeed="15.17" duration="72.00" routeLength="719.31" waitingTime="0.00" waitingCount="0" stopTime="0.00" timeLoss="12.59" rerouteNo="1" devices="vehroute_324_0 tripinfo_324_0 routing_324_0" vType="car" speedFactor="1.15" vaporized=""/>
    <tripinfo id="864_0" depart="25842.00" departLane="71_0" departPos="5.10" departSpeed="0.00" departDelay="0.00" arrival="26020.00" arrivalLane="82_0" arrivalPos="58.75" arrivalSpeed="4.76" duration="178.00" routeLength="757.15" waitingTime="0.00" waitingCount="0" stopTime="0.00" timeLoss="23.91" rerouteNo="1" devices="vehroute_864_0 tripinfo_864_0 routing_864_0" vType="car" speedFactor="1.18" vaporized=""/>
    <tripinfo id="831_0" depart="25988.00" departLane="291_0" departPos="0.20" departSpeed="0.00" departDelay="0.00" arrival="26042.00" arrivalLane="539_0" arrivalPos="3.16" arrivalSpeed="4.86" duration="54.00" routeLength="323.35" waitingTime="0.00" waitingCount="0" stopTime="0.00" timeLoss="7.97" rerouteNo="1" devices="vehroute_831_0 tripinfo_831_0 routing_831_0" vType="car" speedFactor="1.17" vaporized=""/>
    <tripinfo id="212_0" depart="25750.00" departLane="14_0" departPos="5.10" departSpeed="0.00" departDelay="0.00" arrival="26062.00" arrivalLane="198_0" arrivalPos="115.90" arrivalSpeed="3.36" duration="312.00" routeLength="997.35" waitingTime="0.00" waitingCount="0" stopTime="0.00" timeLoss="51.24" rerouteNo="1" devices="vehroute_212_0 tripinfo_212_0 routing_212_0" vType="car" speedFactor="0.92" vaporized=""/>
    <tripinfo id="740_0" depart="25816.00" departLane="144_0" departPos="5.10" departSpeed="0.00" departDelay="0.00" arrival="26136.00" arrivalLane="400_0" arrivalPos="5.95" arrivalSpeed="3.54" duration="320.00" routeLength="1521.05" waitingTime="0.00" waitingCount="0" stopTime="0.00" timeLoss="49.55" rerouteNo="1" devices="vehroute_740_0 tripinfo_740_0 routing_740_0" vType="car" speedFactor="0.93" vaporized=""/>
    <tripinfo id="445_0" depart="25953.00" departLane="18_0" departPos="1.55" departSpeed="0.00" departDelay="0.00" arrival="26152.00" arrivalLane="91_0" arrivalPos="7.38" arrivalSpeed="3.21" duration="199.00" routeLength="1315.79" waitingTime="0.00" waitingCount="0" stopTime="0.00" timeLoss="20.35" rerouteNo="1" devices="vehroute_445_0 tripinfo_445_0 routing_445_0" vType="car" speedFactor="1.01" vaporized=""/>
    <tripinfo id="898_0" depart="26141.00" departLane="197_0" departPos="0.20" departSpeed="0.00" departDelay="0.00" arrival="26168.00" arrivalLane="598_0" arrivalPos="0.20" arrivalSpeed="11.85" duration="27.00" routeLength="186.77" waitingTime="0.00" waitingCount="0" stopTime="0.00" timeLoss="5.22" rerouteNo="1" devices="vehroute_898_0 tripinfo_898_0 routing_898_0" vType="car" speedFactor="0.90" vaporized=""/>
    <tripinfo id="713_0" depart="25769.00" departLane="123_0" departPos="2.79" departSpeed="0.00" departDelay="0.00" arrival="26233.00" arrivalLane="31_0" arrivalPos="67.54" arrivalSpeed="5.79" duration="464.00" routeLength="1503.11" waitingTime="83.00" waitingCount="2" stopTime="0.00" timeLoss="147.41" rerouteNo="1" devices="vehroute_713_0 tripinfo_713_0 routing_713_0" vType="car" speedFactor="0.95" vaporized=""/>
    <tripinfo id="584_0" depart="26182.00" departLane="538_0" departPos="3.22" departSpeed="0.00" departDelay="0.00" arrival="26235.00" arrivalLane="241_0" arrivalPos="9.37" arrivalSpeed="7.33" duration="53.00" routeLength="279.62" waitingTime="0.00" waitingCount="0" stopTime="0.00" timeLoss="7.24" rerouteNo="1" devices="vehroute_584_0 tripinfo_584_0 routing_584_0" vType="car" speedFactor="1.03" vaporized=""/>
    <tripinfo id="732_0" depart="26016.00" departLane="244_0" departPos="5.10" departSpeed="0.00" departDelay="0.00" arrival="26246.00" arrivalLane="374_0" arrivalPos="41.94" arrivalSpeed="6.63" duration="230.00" routeLength="1093.55" waitingTime="33.00" waitingCount="1" stopTime="0.00" timeLoss="59.23" rerouteNo="1" devices="vehroute_732_0 tripinfo_732_0 routing_732_0" vType="car" speedFactor="1.02" vaporized=""/>
    <tripinfo id="471_0" depart="26096.00" departLane="550_0" departPos="1.89" departSpeed="0.00" departDelay="0.00" arrival="26265.00" arrivalLane="135_0" arrivalPos="11.12" arrivalSpeed="4.44" duration="169.00" routeLength="956.81" waitingTime="0.00" waitingCount="0" stopTime="0.00" timeLoss="21.00" rerouteNo="1" devices="vehroute_471_0 tripinfo_471_0 routing_471_0" vType="car" speedFactor="1.18" vaporized=""/>
    <tripinfo id="967_0" depart="26086.00" departLane="465_0" departPos="5.10" departSpeed="0.00" departDelay="0.00" arrival="26268.00" arrivalLane="230_0" arrivalPos="22.10" arrivalSpeed="12.73" duration="182.00" routeLength="968.20" waitingTime="23.00" waitingCount="1" stopTime="0.00" timeLoss="46.79" rerouteNo="1" devices="vehroute_967_0 tripinfo_967_0 routing_967_0" vType="car" speedFactor="0.97" vaporized=""/>
    <tripinfo id="272_0" depart="26135.00" departLane="350_0" departPos="5.10" departSpeed="0.00" departDelay="0.00" arrival="26379.00" arrivalLane="123_0" arrivalPos="2.79" arrivalSpeed="3.44" duration="244.00" routeLength="1061.45" waitingTime="0.00" waitingCount="0" stopTime="0.00" timeLoss="34.35" rerouteNo="1" devices="vehroute_272_0 tripinfo_272_0 routing_272_0" vType="car" speedFactor="1.10" vaporized=""/>
    <tripinfo id="844_0" depart="26354.00" departLane="598_0" departPos="0.20" departSpeed="0.00" departDelay="0.00" arrival="26384.00" arrivalLane="568_0" arrivalPos="0.20" arrivalSpeed="7.48" duration="30.00" routeLength="190.37" waitingTime="0.00" waitingCount="0" stopTime="0.00" timeLoss="6.81" rerouteNo="1" devices="vehroute_844_0 tripinfo_844_0 routing_844_0" vType="car" speedFactor="1.00" vaporized=""/>
    <tripinfo id="406_0" depart="26011.00" departLane="562_0" departPos="5.10" departSpeed="0.00" departDelay="0.00" arrival="26396.00" arrivalLane="135_0" arrivalPos="11.12" arrivalSpeed="2.89" duration="385.00" routeLength="1810.21" waitingTime="0.00" waitingCount="0" stopTime="0.00" timeLoss="59.10" rerouteNo="1" devices="vehroute_406_0 tripinfo_406_0 routing_406_0" vType="car" speedFactor="0.99" vaporized=""/>
    <tripinfo id="874_0" depart="26227.00" departLane="10_0" departPos="1.28" departSpeed="0.00" departDelay="0.00" arrival="26508.00" arrivalLane="145_0" arrivalPos="8.95" arrivalSpeed="3.92" duration="281.00" routeLength="1444.92" waitingTime="18.00" waitingCount="1" stopTime="0.00" timeLoss="51.56" rerouteNo="1" devices="vehroute_874_0 tripinfo_874_0 routing_874_0" vType="car" speedFactor="1.09" vaporized=""/>
    <tripinfo id="755_0" depart="26210.00" departLane="446_0" departPos="5.10" departSpeed="0.00" departDelay="0.00" arrival="26526.00" arrivalLane="579_0" arrivalPos="3.82" arrivalSpeed="5.49" duration="316.00" routeLength="1312.07" waitingTime="14.00" waitingCount="2" stopTime="0.00" timeLoss="64.22" rerouteNo="1" devices="vehroute_755_0 tripinfo_755_0 routing_755_0" vType="car" speedFactor="0.96" vaporized=""/>
    <tripinfo id="44_0" depart="26395.00" departLane="241_0" departPos="5.10" departSpeed="0.00" departDelay="0.00" arrival="26551.00" arrivalLane="164_0" arrivalPos="4.92" arrivalSpeed="2.85" duration="156.00" routeLength="621.23" waitingTime="0.00" waitingCount="0" stopTime="0.00" timeLoss="25.62" rerouteNo="1" devices="vehroute_44_0 tripinfo_44_0 routing_44_0" vType="car" speedFactor="0.88" vaporized=""/>
    <tripinfo id="619_0" depart="26353.00" departLane="228_0" departPos="5.10" departSpeed="0.00" departDelay="0.00" arrival="26573.00" arrivalLane="610_0" arrivalPos="14.54" arrivalSpeed="7.61" duration="220.00" routeLength="2021.37" waitingTime="38.00" waitingCount="2" stopTime="0.00" timeLoss="66.68" rerouteNo="1" devices="vehroute_619_0 tripinfo_619_0 routing_619_0" vType="car" speedFactor="1.09" vaporized=""/>
    <tripinfo id="304_0" depart="26429.00" departLane="326_0" departPos="5.10" departSpeed="0.00" departDelay="0.00" arrival="26587.00" arrivalLane="592_0" arrivalPos="9.73" arrivalSpeed="8.02" duration="158.00" routeLength="636.29" waitingTime="44.00" waitingCount="1" stopTime="0.00" timeLoss="61.49" rerouteNo="1" devices="vehroute_304_0 tripinfo_304_0 routing_304_0" vType="car" speedFactor="0.85" vaporized=""/>
    <tripinfo id="118_0" depart="26272.00" departLane="249_0" departPos="5.10" departSpeed="0.00" departDelay="0.00" arrival="26657.00" arrivalLane="169_0" arrivalPos="63.60" arrivalSpeed="3.96" duration="385.00" routeLength="1341.69" waitingTime="36.00" waitingCount="1" stopTime="0.00" timeLoss="86.46" rerouteNo="1" devices="vehroute_118_0 tripinfo_118_0 routing_118_0" vType="car" speedFactor="1.04" vaporized=""/>
    <tripinfo id="88_0" depart="26394.00" departLane="449_0" departPos="5.10" departSpeed="0.00" departDelay="0.00" arrival="26667.00" arrivalLane="590_0" arrivalPos="0.17" arrivalSpeed="5.72" duration="273.00" routeLength="880.74" waitingTime="0.00" waitingCount="0" stopTime="0.00" timeLoss="48.24" rerouteNo="1" devices="vehroute_88_0 tripinfo_88_0 routing_88_0" vType="car" speedFactor="0.90" vaporized=""/>
    <tripinfo id="658_0" depart="26559.00" departLane="285_0" departPos="3.29" departSpeed="0.00" departDelay="0.00" arrival="26667.00" arrivalLane="437_0" arrivalPos="9.36" arrivalSpeed="3.85" duration="108.00" routeLength="907.56" waitingTime="0.00" waitingCount="0" stopTime="0.00" timeLoss="15.76" rerouteNo="1" devices="vehroute_658_0 tripinfo_658_0 routing_658_0" vType="car" speedFactor="1.17" vaporized=""/>
    <tripinfo id="654_0" depart="26697.00" departLane="253_0" departPos="4.21" departSpeed="0.00" departDelay="0.00" arrival="26745.00" arrivalLane="285_0" arrivalPos="3.29" arrivalSpeed="3.86" duration="48.00" routeLength="199.84" waitingTime="0.00" waitingCount="0" stopTime="0.00" timeLoss="8.27" rerouteNo="1" devices="vehroute_654_0 tripinfo_654_0 routing_654_0" vType="car" speedFactor="1.00" vaporized=""/>
    <tripinfo id="605_0" depart="26659.00" departLane="229_0" departPos="5.10" departSpeed="0.00" departDelay="0.00" arrival="26751.00" arrivalLane="578_0" arrivalPos="9.48" arrivalSpeed="4.16" duration="92.00" routeLength="1024.18" waitingTime="0.00" waitingCount="0" stopTime="0.00" timeLoss="12.33" rerouteNo="1" devices="vehroute_605_0 tripinfo_605_0 routing_605_0" vType="car" speedFactor="1.10" vaporized=""/>
    <tripinfo id="91_0" depart="26227.00" departLane="224_0" departPos="5.10" departSpeed="0.00" departDelay="0.00" arrival="26754.00" arrivalLane="169_0" arrivalPos="63.60" arrivalSpeed="3.60" duration="527.00" routeLength="3011.05" waitingTime="39.00" waitingCount="1" stopTime="0.00" timeLoss="109.48" rerouteNo="1" devices="vehroute_91_0 tripinfo_91_0 routing_91_0" vType="car" speedFactor="1.04" vaporized=""/>
    <tripinfo id="421_0" depart="26757.00" departLane="190_0" departPos="5.10" departSpeed="0.00" departDelay="0.00" arrival="26776.00" arrivalLane="254_0" arrivalPos="0.81" arrivalSpeed="8.03" duration="19.00" routeLength="120.78" waitingTime="0.00" waitingCount="0" stopTime="0.00" timeLoss="2.66" rerouteNo="1" devices="vehroute_421_0 tripinfo_421_0 routing_421_0" vType="car" speedFactor="1.00" vaporized=""/>
    <tripinfo id="177_0" depart="26649.00" departLane="608_0" departPos="5.10" departSpeed="0.00" departDelay="0.00" arrival="26830.00" arrivalLane="141_0" arrivalPos="9.13" arrivalSpeed="3.30" duration="181.00" routeLength="1008.49" waitingTime="0.00" waitingCount="0" stopTime="0.00" timeLoss="23.09" rerouteNo="1" devices="vehroute_177_0 tripinfo_177_0 routing_177_0" vType="car" speedFactor="1.02" vaporized=""/>
    <tripinfo id="706_0" depart="26782.00" departLane="421_0" departPos="5.10" departSpeed="0.00" departDelay="0.00" arrival="26850.00" arrivalLane="583_0" arrivalPos="4.24" arrivalSpeed="6.79" duration="68.00" routeLength="336.72" waitingTime="0.00" waitingCount="0" stopTime="0.00" timeLoss="8.87" rerouteNo="1" devices="vehroute_706_0 tripinfo_706_0 routing_706_0" vType="car" speedFactor="1.14" vaporized=""/>
    <tripinfo id="97_0" depart="26558.00" departLane="9_0" departPos="1.28" departSpeed="0.00" departDelay="0.00" arrival="26897.00" arrivalLane="189_0" arrivalPos="4.78" arrivalSpeed="6.47" duration="339.00" routeLength="945.90" waitingTime="46.00" waitingCount="1" stopTime="0.00" timeLoss="100.31" rerouteNo="1" devices="vehroute_97_0 tripinfo_97_0 routing_97_0" vType="car" speedFactor="0.85" vaporized=""/>
    <tripinfo id="772_0" depart="26776.00" departLane="71_0" departPos="5.10" departSpeed="0.00" departDelay="0.00" arrival="26992.00" arrivalLane="498_0" arrivalPos="5.55" arrivalSpeed="5.60" duration="216.00" routeLength="882.86" waitingTime="40.00" waitingCount="1" stopTime="0.00" timeLoss="67.66" rerouteNo="1" devices="vehroute_772_0 tripinfo_772_0 routing_772_0" vType="car" speedFactor="0.90" vaporized=""/>
    <tripinfo id="174_0" depart="26917.00" departLane="4_0" departPos="5.10" departSpeed="0.00" departDelay="0.00" arrival="27007.00" arrivalLane="22_0" arrivalPos="91.64" arrivalSpeed="6.31" duration="90.00" routeLength="527.41" waitingTime="0.00" waitingCount="0" stopTime="0.00" timeLoss="11.76" rerouteNo="1" devices="vehroute_174_0 tripinfo_174_0 routing_174_0" vType="car" speedFactor="1.08" vaporized=""/>
    <tripinfo id="128_0" depart="26977.00" departLane="388_0" departPos="0.20" departSpeed="0.00" departDelay="0.00" arrival="27050.00" arrivalLane="258_0" arrivalPos="3.33" arrivalSpeed="9.18" duration="73.00" routeLength="596.54" waitingTime="0.00" waitingCount="0" stopTime="0.00" timeLoss="7.71" rerouteNo="1" devices="vehroute_128_0 tripinfo_128_0 routing_128_0" vType="car" speedFactor="1.12" vaporized=""/>
    <tripinfo id="162_0" depart="26802.00" departLane="362_0" departPos="5.10" departSpeed="0.00" departDelay="0.00" arrival="27059.00" arrivalLane="9_0" arrivalPos="1.28" arrivalSpeed="3.04" duration="257.00" routeLength="1448.84" waitingTime="9.00" waitingCount="1" stopTime="0.00" timeLoss="39.81" rerouteNo="1" devices="vehroute_162_0 tripinfo_162_0 routing_162_0" vType="car" speedFactor="1.02" vaporized=""/>
    <tripinfo id="754_0" depart="26983.00" departLane="500_0" departPos="5.10" departSpeed="0.00" departDelay="0.00" arrival="27078.00" arrivalLane="13_0" arrivalPos="1.30" arrivalSpeed="3.21" duration="95.00" routeLength="685.59" waitingTime="0.00" waitingCount="0" stopTime="0.00" timeLoss="9.84" rerouteNo="1" devices="vehroute_754_0 tripinfo_754_0 routing_754_0" vType="car" speedFactor="1.02" vaporized=""/>
    <tripinfo id="119_0" depart="27058.00" departLane="385_0" departPos="5.08" departSpeed="0.00" departDelay="0.00" arrival="27154.00" arrivalLane="522_0" arrivalPos="41.54" arrivalSpeed="11.91" duration="96.00" routeLength="541.54" waitingTime="0.00" waitingCount="0" stopTime="0.00" timeLoss="13.59" rerouteNo="1" devices="vehroute_119_0 tripinfo_119_0 routing_119_0" vType="car" speedFactor="0.94" vaporized=""/>
    <tripinfo id="260_0" depart="27161.00" departLane="85_0" departPos="5.10" departSpeed="0.00" departDelay="0.00" arrival="27233.00" arrivalLane="565_0" arrivalPos="0.20" arrivalSpeed="3.23" duration="72.00" routeLength="222.49" waitingTime="0.00" waitingCount="0" stopTime="0.00" timeLoss="12.93" rerouteNo="1" devices="vehroute_260_0 tripinfo_260_0 routing_260_0" vType="car" speedFactor="0.91" vaporized=""/>
    <tripinfo id="476_0" depart="26849.00" departLane="462_0" departPos="5.10" departSpeed="0.00" departDelay="0.00" arrival="27254.00" arrivalLane="310_0" arrivalPos="118.00" arrivalSpeed="3.09" duration="405.00" routeLength="1619.24" waitingTime="58.00" waitingCount="2" stopTime="0.00" timeLoss="108.65" rerouteNo="1" devices="vehroute_476_0 tripinfo_476_0 routing_476_0" vType="car" speedFactor="0.97" vaporized=""/>
    <tripinfo id="90_0" depart="27155.00" departLane="257_0" departPos="3.31" departSpeed="0.00" departDelay="0.00" arrival="27271.00" arrivalLane="621_0" arrivalPos="88.04" arrivalSpeed="5.01" duration="116.00" routeLength="898.68" waitingTime="0.00" waitingCount="0" stopTime="0.00" timeLoss="15.37" rerouteNo="1" devices="vehroute_90_0 tripinfo_90_0 routing_90_0" vType="car" speedFactor="0.91" vaporized=""/>
    <tripinfo id="768_0" depart="27168.00" departLane="373_0" departPos="5.10" departSpeed="0.00" departDelay="0.00" arrival="27319.00" arrivalLane="433_0" arrivalPos="78.29" arrivalSpeed="3.88" duration="151.00" routeLength="865.34" waitingTime="0.00" waitingCount="0" stopTime="0.00" timeLoss="18.83" rerouteNo="1" devices="vehroute_768_0 tripinfo_768_0 routing_768_0" vType="car" speedFactor="1.04" vaporized=""/>
    <tripinfo id="59_0" depart="26993.00" departLane="593_0" departPos="5.10" departSpeed="0.00" departDelay="0.00" arrival="27347.00" arrivalLane="168_0" arrivalPos="116.26" arrivalSpeed="3.84" duration="354.00" routeLength="1128.73" waitingTime="28.00" waitingCount="1" stopTime="0.00" timeLoss="85.15" rerouteNo="1" devices="vehroute_59_0 tripinfo_59_0 routing_59_0" vType="car" speedFactor="0.99" vaporized=""/>
    <tripinfo id="926_0" depart="27301.00" departLane="533_0" departPos="5.10" departSpeed="0.00" departDelay="0.00" arrival="27390.00" arrivalLane="255_0" arrivalPos="2.10" arrivalSpeed="7.81" duration="89.00" routeLength="445.44" waitingTime="0.00" waitingCount="0" stopTime="0.00" timeLoss="11.13" rerouteNo="1" devices="vehroute_926_0 tripinfo_926_0 routing_926_0" vType="car" speedFactor="0.96" vaporized=""/>