<?xml version="1.0" encoding="UTF-8"?>

<!-- generated on 2022-12-12 09:19:15 by Eclipse SUMO sumo Version 1.15.0
<configuration xmlns:xsi="http://www.w3.org/2001/XMLSchema-instance" xsi:noNamespaceSchemaLocation="http://sumo.dlr.de/xsd/sumoConfiguration.xsd">

    <input>
        <net-file value="MASA.net.xml"/>
        <route-files value="plans/plans200.rou.xml"/>
    </input>

    <output>
        <summary-output value="output/200Veh/summary.xml"/>
        <tripinfo-output value="output/200Veh/tripinfos.xml"/>
        <vehroute-output value="output/200Veh/vehroute.xml"/>
        <statistic-output value="output/200Veh/stats.xml"/>
    </output>

    <time>
        <begin value="0"/>
        <end value="86400"/>
        <step-length value="1"/>
    </time>

    <traci_server>
        <remote-port value="57895"/>
    </traci_server>

</configuration>
-->

<tripinfos xmlns:xsi="http://www.w3.org/2001/XMLSchema-instance" xsi:noNamespaceSchemaLocation="http://sumo.dlr.de/xsd/tripinfo_file.xsd">
    <tripinfo id="48_0" depart="23934.00" departLane="333_0" departPos="5.06" departSpeed="0.00" departDelay="0.00" arrival="24134.00" arrivalLane="175_0" arrivalPos="117.52" arrivalSpeed="8.24" duration="200.00" routeLength="1271.15" waitingTime="0.00" waitingCount="0" stopTime="0.00" timeLoss="20.78" rerouteNo="1" devices="vehroute_48_0 tripinfo_48_0 routing_48_0" vType="car" speedFactor="1.06" vaporized=""/>
    <tripinfo id="18_0" depart="25286.00" departLane="242_0" departPos="0.20" departSpeed="0.00" departDelay="0.00" arrival="25320.00" arrivalLane="627_0" arrivalPos="1.93" arrivalSpeed="5.56" duration="34.00" routeLength="214.40" waitingTime="0.00" waitingCount="0" stopTime="0.00" timeLoss="5.48" rerouteNo="1" devices="vehroute_18_0 tripinfo_18_0 routing_18_0" vType="car" speedFactor="0.94" vaporized=""/>
    <tripinfo id="72_0" depart="25900.00" departLane="570_0" departPos="5.10" departSpeed="0.00" departDelay="0.00" arrival="26187.00" arrivalLane="192_0" arrivalPos="299.75" arrivalSpeed="3.37" duration="287.00" routeLength="1223.41" waitingTime="0.00" waitingCount="0" stopTime="0.00" timeLoss="39.60" rerouteNo="1" devices="vehroute_72_0 tripinfo_72_0 routing_72_0" vType="car" speedFactor="1.01" vaporized=""/>
    <tripinfo id="78_0" depart="26559.00" departLane="397_0" departPos="5.10" departSpeed="0.00" departDelay="0.00" arrival="26772.00" arrivalLane="526_0" arrivalPos="16.61" arrivalSpeed="11.85" duration="213.00" routeLength="1205.70" waitingTime="0.00" waitingCount="0" stopTime="0.00" timeLoss="31.75" rerouteNo="1" devices="vehroute_78_0 tripinfo_78_0 routing_78_0" vType="car" speedFactor="1.03" vaporized=""/>
    <tripinfo id="6_0" depart="26518.00" departLane="503_0" departPos="5.10" departSpeed="0.00" departDelay="0.00" arrival="26797.00" arrivalLane="213_0" arrivalPos="26.06" arrivalSpeed="14.33" duration="279.00" routeLength="2307.56" waitingTime="0.00" waitingCount="0" stopTime="0.00" timeLoss="32.15" rerouteNo="1" devices="vehroute_6_0 tripinfo_6_0 routing_6_0" vType="car" speedFactor="1.08" vaporized=""/>
    <tripinfo id="86_0" depart="26705.00" departLane="426_0" departPos="5.10" departSpeed="0.00" departDelay="0.00" arrival="26944.00" arrivalLane="196_0" arrivalPos="2.55" arrivalSpeed="2.79" duration="239.00" routeLength="972.48" waitingTime="0.00" waitingCount="0" stopTime="0.00" timeLoss="37.72" rerouteNo="1" devices="vehroute_86_0 tripinfo_86_0 routing_86_0" vType="car" speedFactor="0.83" vaporized=""/>
    <tripinfo id="24_0" depart="27322.00" departLane="433_0" departPos="5.10" departSpeed="0.00" departDelay="0.00" arrival="27361.00" arrivalLane="342_0" arrivalPos="50.38" arrivalSpeed="8.65" duration="39.00" routeLength="202.16" waitingTime="0.00" waitingCount="0" stopTime="0.00" timeLoss="5.88" rerouteNo="1" devices="vehroute_24_0 tripinfo_24_0 routing_24_0" vType="car" speedFactor="1.05" vaporized=""/>
    <tripinfo id="88_0" depart="27848.00" departLane="449_0" departPos="5.10" departSpeed="0.00" departDelay="0.00" arrival="28130.00" arrivalLane="590_0" arrivalPos="0.17" arrivalSpeed="4.87" duration="282.00" routeLength="880.76" waitingTime="0.00" waitingCount="0" stopTime="0.00" timeLoss="53.29" rerouteNo="1" devices="vehroute_88_0 tripinfo_88_0 routing_88_0" vType="car" speedFactor="0.89" vaporized=""/>
    <tripinfo id="49_0" depart="28233.00" departLane="543_0" departPos="3.65" departSpeed="0.00" departDelay="0.00" arrival="28314.00" arrivalLane="250_0" arrivalPos="1.22" arrivalSpeed="7.73" duration="81.00" routeLength="472.26" waitingTime="0.00" waitingCount="0" stopTime="0.00" timeLoss="8.95" rerouteNo="1" devices="vehroute_49_0 tripinfo_49_0 routing_49_0" vType="car" speedFactor="0.94" vaporized=""/>
    <tripinfo id="53_0" depart="28346.00" departLane="259_0" departPos="0.20" departSpeed="0.00" departDelay="0.00" arrival="28428.00" arrivalLane="112_0" arrivalPos="1.36" arrivalSpeed="2.90" duration="82.00" routeLength="418.11" waitingTime="0.00" waitingCount="0" stopTime="0.00" timeLoss="11.98" rerouteNo="1" devices="vehroute_53_0 tripinfo_53_0 routing_53_0" vType="car" speedFactor="0.86" vaporized=""/>
    <tripinfo id="66_0" depart="28606.00" departLane="265_0" departPos="1.24" departSpeed="0.00" departDelay="0.00" arrival="28643.00" arrivalLane="352_0" arrivalPos="10.85" arrivalSpeed="8.25" duration="37.00" routeLength="260.21" waitingTime="0.00" waitingCount="0" stopTime="0.00" timeLoss="5.87" rerouteNo="1" devices="vehroute_66_0 tripinfo_66_0 routing_66_0" vType="car" speedFactor="1.05" vaporized=""/>
    <tripinfo id="79_0" depart="28578.00" departLane="116_0" departPos="5.10" departSpeed="0.00" departDelay="0.00" arrival="28666.00" arrivalLane="263_0" arrivalPos="3.11" arrivalSpeed="9.01" duration="88.00" routeLength="504.94" waitingTime="0.00" waitingCount="0" stopTime="0.00" timeLoss="10.41" rerouteNo="1" devices="vehroute_79_0 tripinfo_79_0 routing_79_0" vType="car" speedFactor="1.09" vaporized=""/>
    <tripinfo id="50_0" depart="28606.00" departLane="309_0" departPos="0.20" departSpeed="0.00" departDelay="0.00" arrival="28748.00" arrivalLane="540_0" arrivalPos="3.16" arrivalSpeed="4.28" duration="142.00" routeLength="645.58" waitingTime="0.00" waitingCount="0" stopTime="0.00" timeLoss="21.01" rerouteNo="1" devices="vehroute_50_0 tripinfo_50_0 routing_50_0" vType="car" speedFactor="1.03" vaporized=""/>
    <tripinfo id="58_0" depart="28811.00" departLane="352_0" departPos="5.10" departSpeed="0.00" departDelay="0.00" arrival="29007.00" arrivalLane="447_0" arrivalPos="193.46" arrivalSpeed="4.34" duration="196.00" routeLength="850.02" waitingTime="0.00" waitingCount="0" stopTime="0.00" timeLoss="29.29" rerouteNo="1" devices="vehroute_58_0 tripinfo_58_0 routing_58_0" vType="car" speedFactor="1.12" vaporized=""/>
    <tripinfo id="14_0" depart="29046.00" departLane="610_0" departPos="5.10" departSpeed="0.00" departDelay="0.00" arrival="29067.00" arrivalLane="485_0" arrivalPos="6.27" arrivalSpeed="3.19" duration="21.00" routeLength="117.46" waitingTime="0.00" waitingCount="0" stopTime="0.00" timeLoss="4.17" rerouteNo="1" devices="vehroute_14_0 tripinfo_14_0 routing_14_0" vType="car" speedFactor="0.99" vaporized=""/>
    <tripinfo id="16_0" depart="29254.00" departLane="206_0" departPos="5.10" departSpeed="0.00" departDelay="0.00" arrival="29451.00" arrivalLane="351_0" arrivalPos="28.70" arrivalSpeed="6.90" duration="197.00" routeLength="2103.91" waitingTime="0.00" waitingCount="0" stopTime="0.00" timeLoss="18.91" rerouteNo="1" devices="vehroute_16_0 tripinfo_16_0 routing_16_0" vType="car" speedFactor="0.93" vaporized=""/>
    <tripinfo id="92_0" depart="29301.00" departLane="453_0" departPos="5.10" departSpeed="0.00" departDelay="0.00" arrival="29458.00" arrivalLane="276_0" arrivalPos="7.28" arrivalSpeed="2.98" duration="157.00" routeLength="919.83" waitingTime="0.00" waitingCount="0" stopTime="0.00" timeLoss="18.22" rerouteNo="1" devices="vehroute_92_0 tripinfo_92_0 routing_92_0" vType="car" speedFactor="0.88" vaporized=""/>
    <tripinfo id="7_0" depart="29540.00" departLane="222_0" departPos="5.10" departSpeed="0.00" departDelay="0.00" arrival="29672.00" arrivalLane="190_0" arrivalPos="9.74" arrivalSpeed="8.91" duration="132.00" routeLength="1777.09" waitingTime="0.00" waitingCount="0" stopTime="0.00" timeLoss="16.21" rerouteNo="1" devices="vehroute_7_0 tripinfo_7_0 routing_7_0" vType="car" speedFactor="1.16" vaporized=""/>
    <tripinfo id="69_0" depart="29534.00" departLane="90_0" departPos="1.65" departSpeed="0.00" departDelay="0.00" arrival="29712.00" arrivalLane="23_0" arrivalPos="135.89" arrivalSpeed="6.08" duration="178.00" routeLength="1091.60" waitingTime="0.00" waitingCount="0" stopTime="0.00" timeLoss="20.04" rerouteNo="1" devices="vehroute_69_0 tripinfo_69_0 routing_69_0" vType="car" speedFactor="0.94" vaporized=""/>
    <tripinfo id="89_0" depart="29663.00" departLane="551_0" departPos="5.10" departSpeed="0.00" departDelay="0.00" arrival="29903.00" arrivalLane="449_0" arrivalPos="301.22" arrivalSpeed="3.68" duration="240.00" routeLength="1034.53" waitingTime="0.00" waitingCount="0" stopTime="0.00" timeLoss="34.66" rerouteNo="1" devices="vehroute_89_0 tripinfo_89_0 routing_89_0" vType="car" speedFactor="1.02" vaporized=""/>
    <tripinfo id="20_0" depart="29464.00" departLane="325_0" departPos="5.10" departSpeed="0.00" departDelay="0.00" arrival="29980.00" arrivalLane="81_0" arrivalPos="56.51" arrivalSpeed="2.69" duration="516.00" routeLength="2106.13" waitingTime="0.00" waitingCount="0" stopTime="0.00" timeLoss="76.11" rerouteNo="1" devices="vehroute_20_0 tripinfo_20_0 routing_20_0" vType="car" speedFactor="0.94" vaporized=""/>
    <tripinfo id="64_0" depart="29969.00" departLane="275_0" departPos="5.10" departSpeed="0.00" departDelay="0.00" arrival="30002.00" arrivalLane="485_0" arrivalPos="6.27" arrivalSpeed="3.80" duration="33.00" routeLength="176.00" waitingTime="0.00" waitingCount="0" stopTime="0.00" timeLoss="4.83" rerouteNo="1" devices="vehroute_64_0 tripinfo_64_0 routing_64_0" vType="car" speedFactor="1.01" vaporized=""/>
    <tripinfo id="15_0" depart="30274.00" departLane="549_0" departPos="1.89" departSpeed="0.00" departDelay="0.00" arrival="30379.00" arrivalLane="283_0" arrivalPos="25.92" arrivalSpeed="3.17" duration="105.00" routeLength="534.75" waitingTime="0.00" waitingCount="0" stopTime="0.00" timeLoss="13.79" rerouteNo="1" devices="vehroute_15_0 tripinfo_15_0 routing_15_0" vType="car" speedFactor="0.97" vaporized=""/>
    <tripinfo id="90_0" depart="30416.00" departLane="257_0" departPos="3.31" departSpeed="0.00" departDelay="0.00" arrival="30535.00" arrivalLane="621_0" arrivalPos="88.04" arrivalSpeed="5.52" duration="119.00" routeLength="899.09" waitingTime="0.00" waitingCount="0" stopTime="0.00" timeLoss="16.03" rerouteNo="1" devices="vehroute_90_0 tripinfo_90_0 routing_90_0" vType="car" speedFactor="0.89" vaporized=""/>
    <tripinfo id="82_0" depart="30588.00" departLane="206_0" departPos="5.10" departSpeed="0.00" departDelay="0.00" arrival="30607.00" arrivalLane="226_0" arrivalPos="18.91" arrivalSpeed="15.35" duration="19.00" routeLength="220.86" waitingTime="0.00" waitingCount="0" stopTime="0.00" timeLoss="4.24" rerouteNo="1" devices="vehroute_82_0 tripinfo_82_0 routing_82_0" vType="car" speedFactor="1.13" vaporized=""/>
    <tripinfo id="12_0" depart="30500.00" departLane="345_0" departPos="5.10" departSpeed="0.00" departDelay="0.00" arrival="30731.00" arrivalLane="209_0" arrivalPos="23.97" arrivalSpeed="11.80" duration="231.00" routeLength="1855.89" waitingTime="0.00" waitingCount="0" stopTime="0.00" timeLoss="25.84" rerouteNo="1" devices="vehroute_12_0 tripinfo_12_0 routing_12_0" vType="car" speedFactor="0.87" vaporized=""/>
    <tripinfo id="36_0" depart="30571.00" departLane="140_0" departPos="5.10" departSpeed="0.00" departDelay="0.00" arrival="30733.00" arrivalLane="373_0" arrivalPos="6.12" arrivalSpeed="5.94" duration="162.00" routeLength="680.40" waitingTime="0.00" waitingCount="0" stopTime="0.00" timeLoss="24.25" rerouteNo="1" devices="vehroute_36_0 tripinfo_36_0 routing_36_0" vType="car" speedFactor="0.92" vaporized=""/>
    <tripinfo id="25_0" depart="30648.00" departLane="279_0" departPos="5.10" departSpeed="0.00" departDelay="0.00" arrival="30753.00" arrivalLane="435_0" arrivalPos="5.15" arrivalSpeed="4.20" duration="105.00" routeLength="894.69" waitingTime="0.00" waitingCount="0" stopTime="0.00" timeLoss="15.28" rerouteNo="1" devices="vehroute_25_0 tripinfo_25_0 routing_25_0" vType="car" speedFactor="1.18" vaporized=""/>
    <tripinfo id="31_0" depart="30723.00" departLane="353_0" departPos="5.10" departSpeed="0.00" departDelay="0.00" arrival="30772.00" arrivalLane="187_0" arrivalPos="4.52" arrivalSpeed="9.56" duration="49.00" routeLength="419.46" waitingTime="0.00" waitingCount="0" stopTime="0.00" timeLoss="5.17" rerouteNo="1" devices="vehroute_31_0 tripinfo_31_0 routing_31_0" vType="car" speedFactor="1.15" vaporized=""/>
    <tripinfo id="65_0" depart="30583.00" departLane="349_0" departPos="5.10" departSpeed="0.00" departDelay="0.00" arrival="30804.00" arrivalLane="505_0" arrivalPos="12.78" arrivalSpeed="3.59" duration="221.00" routeLength="1080.48" waitingTime="0.00" waitingCount="0" stopTime="0.00" timeLoss="26.55" rerouteNo="1" devices="vehroute_65_0 tripinfo_65_0 routing_65_0" vType="car" speedFactor="0.95" vaporized=""/>
    <tripinfo id="71_0" depart="30607.00" departLane="247_0" departPos="5.10" departSpeed="0.00" departDelay="0.00" arrival="30894.00" arrivalLane="457_0" arrivalPos="31.37" arrivalSpeed="3.00" duration="287.00" routeLength="1137.89" waitingTime="0.00" waitingCount="0" stopTime="0.00" timeLoss="41.18" rerouteNo="1" devices="vehroute_71_0 tripinfo_71_0 routing_71_0" vType="car" speedFactor="0.93" vaporized=""/>
    <tripinfo id="98_0" depart="30926.00" departLane="607_0" departPos="5.10" departSpeed="0.00" departDelay="0.00" arrival="31026.00" arrivalLane="432_0" arrivalPos="78.28" arrivalSpeed="3.49" duration="100.00" routeLength="609.49" waitingTime="1.00" waitingCount="1" stopTime="0.00" timeLoss="15.98" rerouteNo="1" devices="vehroute_98_0 tripinfo_98_0 routing_98_0" vType="car" speedFactor="1.01" vaporized=""/>
    <tripinfo id="91_0" depart="30433.00" departLane="224_0" departPos="5.10" departSpeed="0.00" departDelay="0.00" arrival="31061.00" arrivalLane="169_0" arrivalPos="63.60" arrivalSpeed="2.83" duration="628.00" routeLength="3011.33" waitingTime="0.00" waitingCount="0" stopTime="0.00" timeLoss="103.00" rerouteNo="1" devices="vehroute_91_0 tripinfo_91_0 routing_91_0" vType="car" speedFactor="0.83" vaporized=""/>
    <tripinfo id="17_0" depart="31014.00" departLane="404_0" departPos="5.10" departSpeed="0.00" departDelay="0.00" arrival="31129.00" arrivalLane="78_0" arrivalPos="53.36" arrivalSpeed="3.12" duration="115.00" routeLength="393.24" waitingTime="0.00" waitingCount="0" stopTime="0.00" timeLoss="17.99" rerouteNo="1" devices="vehroute_17_0 tripinfo_17_0 routing_17_0" vType="car" speedFactor="0.97" vaporized=""/>
    <tripinfo id="19_0" depart="30983.00" departLane="442_0" departPos="5.10" departSpeed="0.00" departDelay="0.00" arrival="31144.00" arrivalLane="227_0" arrivalPos="18.91" arrivalSpeed="13.23" duration="161.00" routeLength="1464.25" waitingTime="0.00" waitingCount="0" stopTime="0.00" timeLoss="19.51" rerouteNo="1" devices="vehroute_19_0 tripinfo_19_0 routing_19_0" vType="car" speedFactor="0.99" vaporized=""/>
    <tripinfo id="45_0" depart="30953.00" departLane="468_0" departPos="5.10" departSpeed="0.00" departDelay="0.00" arrival="31157.00" arrivalLane="329_0" arrivalPos="84.41" arrivalSpeed="4.67" duration="204.00" routeLength="1074.88" waitingTime="0.00" waitingCount="0" stopTime="0.00" timeLoss="25.87" rerouteNo="1" devices="vehroute_45_0 tripinfo_45_0 routing_45_0" vType="car" speedFactor="1.17" vaporized=""/>
    <tripinfo id="10_0" depart="30986.00" departLane="151_0" departPos="5.10" departSpeed="0.00" departDelay="0.00" arrival="31191.00" arrivalLane="197_0" arrivalPos="0.20" arrivalSpeed="3.11" duration="205.00" routeLength="1115.82" waitingTime="0.00" waitingCount="0" stopTime="0.00" timeLoss="26.21" rerouteNo="1" devices="vehroute_10_0 tripinfo_10_0 routing_10_0" vType="car" speedFactor="1.02" vaporized=""/>
    <tripinfo id="57_0" depart="31099.00" departLane="481_0" departPos="0.20" departSpeed="0.00" departDelay="0.00" arrival="31215.00" arrivalLane="284_0" arrivalPos="25.92" arrivalSpeed="4.26" duration="116.00" routeLength="814.16" waitingTime="0.00" waitingCount="0" stopTime="0.00" timeLoss="14.56" rerouteNo="1" devices="vehroute_57_0 tripinfo_57_0 routing_57_0" vType="car" speedFactor="1.18" vaporized=""/>
    <tripinfo id="41_0" depart="31207.00" departLane="66_0" departPos="0.80" departSpeed="0.00" departDelay="0.00" arrival="31243.00" arrivalLane="242_0" arrivalPos="0.20" arrivalSpeed="8.81" duration="36.00" routeLength="288.88" waitingTime="0.00" waitingCount="0" stopTime="0.00" timeLoss="3.50" rerouteNo="1" devices="vehroute_41_0 tripinfo_41_0 routing_41_0" vType="car" speedFactor="1.10" vaporized=""/>
    <tripinfo id="52_0" depart="31567.00" departLane="352_0" departPos="5.10" departSpeed="0.00" departDelay="0.00" arrival="31632.00" arrivalLane="63_0" arrivalPos="26.69" arrivalSpeed="2.77" duration="65.00" routeLength="373.12" waitingTime="0.00" waitingCount="0" stopTime="0.00" timeLoss="8.72" rerouteNo="1" devices="vehroute_52_0 tripinfo_52_0 routing_52_0" vType="car" speedFactor="0.90" vaporized=""/>
    <tripinfo id="9_0" depart="31715.00" departLane="495_0" departPos="5.10" departSpeed="0.00" departDelay="0.00" arrival="31796.00" arrivalLane="200_0" arrivalPos="193.60" arrivalSpeed="4.01" duration="81.00" routeLength="290.79" waitingTime="0.00" waitingCount="0" stopTime="0.00" timeLoss="12.61" rerouteNo="1" devices="vehroute_9_0 tripinfo_9_0 routing_9_0" vType="car" speedFactor="1.03" vaporized=""/>
    <tripinfo id="21_0" depart="31760.00" departLane="161_0" departPos="4.90" departSpeed="0.00" departDelay="0.00" arrival="31988.00" arrivalLane="237_0" arrivalPos="87.64" arrivalSpeed="12.55" duration="228.00" routeLength="1587.41" waitingTime="0.00" waitingCount="0" stopTime="0.00" timeLoss="29.97" rerouteNo="1" devices="vehroute_21_0 tripinfo_21_0 routing_21_0" vType="car" speedFactor="0.96" vaporized=""/>
    <tripinfo id="8_0" depart="31829.00" departLane="224_0" departPos="5.10" departSpeed="0.00" departDelay="0.00" arrival="32135.00" arrivalLane="12_0" arrivalPos="46.77" arrivalSpeed="4.33" duration="306.00" routeLength="2396.79" waitingTime="0.00" waitingCount="0" stopTime="0.00" timeLoss="35.22" rerouteNo="1" devices="vehroute_8_0 tripinfo_8_0 routing_8_0" vType="car" speedFactor="1.09" vaporized=""/>
    <tripinfo id="55_0" depart="32166.00" departLane="66_0" departPos="0.80" departSpeed="0.00" departDelay="0.00" arrival="32192.00" arrivalLane="259_0" arrivalPos="0.20" arrivalSpeed="7.15" duration="26.00" routeLength="179.47" waitingTime="0.00" waitingCount="0" stopTime="0.00" timeLoss="3.23" rerouteNo="1" devices="vehroute_55_0 tripinfo_55_0 routing_55_0" vType="car" speedFactor="1.00" vaporized=""/>
    <tripinfo id="29_0" depart="32090.00" departLane="138_0" departPos="5.10" departSpeed="0.00" departDelay="0.00" arrival="32196.00" arrivalLane="579_0" arrivalPos="3.83" arrivalSpeed="7.20" duration="106.00" routeLength="455.90" waitingTime="0.00" waitingCount="0" stopTime="0.00" timeLoss="15.06" rerouteNo="1" devices="vehroute_29_0 tripinfo_29_0 routing_29_0" vType="car" speedFactor="1.04" vaporized=""/>
    <tripinfo id="77_0" depart="31904.00" departLane="50_0" departPos="5.10" departSpeed="0.00" departDelay="0.00" arrival="32269.00" arrivalLane="382_0" arrivalPos="12.84" arrivalSpeed="6.62" duration="365.00" routeLength="1939.44" waitingTime="0.00" waitingCount="0" stopTime="0.00" timeLoss="46.09" rerouteNo="1" devices="vehroute_77_0 tripinfo_77_0 routing_77_0" vType="car" speedFactor="1.04" vaporized=""/>
    <tripinfo id="63_0" depart="32133.00" departLane="324_0" departPos="0.91" departSpeed="0.00" departDelay="0.00" arrival="32272.00" arrivalLane="382_0" arrivalPos="12.84" arrivalSpeed="6.38" duration="139.00" routeLength="919.83" waitingTime="0.00" waitingCount="0" stopTime="0.00" timeLoss="17.68" rerouteNo="1" devices="vehroute_63_0 tripinfo_63_0 routing_63_0" vType="car" speedFactor="1.09" vaporized=""/>
    <tripinfo id="38_0" depart="32528.00" departLane="179_0" departPos="4.97" departSpeed="0.00" departDelay="0.00" arrival="32648.00" arrivalLane="511_0" arrivalPos="17.32" arrivalSpeed="11.33" duration="120.00" routeLength="777.15" waitingTime="0.00" waitingCount="0" stopTime="0.00" timeLoss="16.22" rerouteNo="1" devices="vehroute_38_0 tripinfo_38_0 routing_38_0" vType="car" speedFactor="0.85" vaporized=""/>
    <tripinfo id="2_0" depart="32400.00" departLane="187_0" departPos="4.52" departSpeed="0.00" departDelay="0.00" arrival="32722.00" arrivalLane="199_0" arrivalPos="115.90" arrivalSpeed="3.10" duration="322.00" routeLength="1197.26" waitingTime="0.00" waitingCount="0" stopTime="0.00" timeLoss="53.07" rerouteNo="1" devices="vehroute_2_0 tripinfo_2_0 routing_2_0" vType="car" speedFactor="0.90" vaporized=""/>
    <tripinfo id="54_0" depart="32402.00" departLane="5_0" departPos="0.92" departSpeed="0.00" departDelay="0.00" arrival="32763.00" arrivalLane="213_0" arrivalPos="26.06" arrivalSpeed="11.21" duration="361.00" routeLength="2418.60" waitingTime="0.00" waitingCount="0" stopTime="0.00" timeLoss="43.13" rerouteNo="1" devices="vehroute_54_0 tripinfo_54_0 routing_54_0" vType="car" speedFactor="0.88" vaporized=""/>
    <tripinfo id="76_0" depart="32592.00" departLane="144_0" departPos="5.10" departSpeed="0.00" departDelay="0.00" arrival="32831.00" arrivalLane="310_0" arrivalPos="118.00" arrivalSpeed="3.27" duration="239.00" routeLength="1189.72" waitingTime="0.00" waitingCount="0" stopTime="0.00" timeLoss="38.21" rerouteNo="1" devices="vehroute_76_0 tripinfo_76_0 routing_76_0" vType="car" speedFactor="0.85" vaporized=""/>
    <tripinfo id="35_0" depart="32711.00" departLane="23_0" departPos="5.10" departSpeed="0.00" departDelay="0.00" arrival="32853.00" arrivalLane="370_0" arrivalPos="4.67" arrivalSpeed="7.73" duration="142.00" routeLength="1054.30" waitingTime="0.00" waitingCount="0" stopTime="0.00" timeLoss="13.67" rerouteNo="1" devices="vehroute_35_0 tripinfo_35_0 routing_35_0" vType="car" speedFactor="1.17" vaporized=""/>
    <tripinfo id="46_0" depart="32914.00" departLane="523_0" departPos="5.10" departSpeed="0.00" departDelay="0.00" arrival="32957.00" arrivalLane="621_0" arrivalPos="88.04" arrivalSpeed="6.53" duration="43.00" routeLength="282.28" waitingTime="0.00" waitingCount="0" stopTime="0.00" timeLoss="7.01" rerouteNo="1" devices="vehroute_46_0 tripinfo_46_0 routing_46_0" vType="car" speedFactor="1.00" vaporized=""/>
    <tripinfo id="85_0" depart="32903.00" departLane="10_0" departPos="1.28" departSpeed="0.00" departDelay="0.00" arrival="33110.00" arrivalLane="174_0" arrivalPos="80.96" arrivalSpeed="8.78" duration="207.00" routeLength="1342.50" waitingTime="0.00" waitingCount="0" stopTime="0.00" timeLoss="22.62" rerouteNo="1" devices="vehroute_85_0 tripinfo_85_0 routing_85_0" vType="car" speedFactor="1.10" vaporized=""/>
    <tripinfo id="59_0" depart="32807.00" departLane="593_0" departPos="5.10" departSpeed="0.00" departDelay="0.00" arrival="33116.00" arrivalLane="168_0" arrivalPos="116.25" arrivalSpeed="3.99" duration="309.00" routeLength="1128.57" waitingTime="0.00" waitingCount="0" stopTime="0.00" timeLoss="47.81" rerouteNo="1" devices="vehroute_59_0 tripinfo_59_0 routing_59_0" vType="car" speedFactor="1.02" vaporized=""/>
    <tripinfo id="0_0" depart="33106.00" departLane="582_0" departPos="5.10" departSpeed="0.00" departDelay="0.00" arrival="33146.00" arrivalLane="620_0" arrivalPos="18.91" arrivalSpeed="6.33" duration="40.00" routeLength="230.48" waitingTime="0.00" waitingCount="0" stopTime="0.00" timeLoss="5.39" rerouteNo="1" devices="vehroute_0_0 tripinfo_0_0 routing_0_0" vType="car" speedFactor="1.00" vaporized=""/>
    <tripinfo id="73_0" depart="33129.00" departLane="195_0" departPos="2.67" departSpeed="0.00" departDelay="0.00" arrival="33208.00" arrivalLane="108_0" arrivalPos="50.96" arrivalSpeed="3.68" duration="79.00" routeLength="316.98" waitingTime="0.00" waitingCount="0" stopTime="0.00" timeLoss="13.23" rerouteNo="1" devices="vehroute_73_0 tripinfo_73_0 routing_73_0" vType="car" speedFactor="0.90" vaporized=""/>
    <tripinfo id="5_0" depart="33171.00" departLane="514_0" departPos="5.10" departSpeed="0.00" departDelay="0.00" arrival="33298.00" arrivalLane="217_0" arrivalPos="8.99" arrivalSpeed="14.62" duration="127.00" routeLength="1750.34" waitingTime="0.00" waitingCount="0" stopTime="0.00" timeLoss="15.40" rerouteNo="1" devices="vehroute_5_0 tripinfo_5_0 routing_5_0" vType="car" speedFactor="1.14" vaporized=""/>
    <tripinfo id="23_0" depart="33374.00" departLane="340_0" departPos="5.10" departSpeed="0.00" departDelay="0.00" arrival="33423.00" arrivalLane="610_0" arrivalPos="14.54" arrivalSpeed="7.98" duration="49.00" routeLength="387.14" waitingTime="0.00" waitingCount="0" stopTime="0.00" timeLoss="5.73" rerouteNo="1" devices="vehroute_23_0 tripinfo_23_0 routing_23_0" vType="car" speedFactor="1.08" vaporized=""/>
    <tripinfo id="51_0" depart="33192.00" departLane="477_0" departPos="3.22" departSpeed="0.00" departDelay="0.00" arrival="33435.00" arrivalLane="394_0" arrivalPos="75.42" arrivalSpeed="3.02" duration="243.00" routeLength="870.34" waitingTime="0.00" waitingCount="0" stopTime="0.00" timeLoss="38.73" rerouteNo="1" devices="vehroute_51_0 tripinfo_51_0 routing_51_0" vType="car" speedFactor="1.02" vaporized=""/>
    <tripinfo id="44_0" depart="33394.00" departLane="241_0" departPos="5.10" departSpeed="0.00" departDelay="0.00" arrival="33512.00" arrivalLane="164_0" arrivalPos="4.92" arrivalSpeed="4.59" duration="118.00" routeLength="620.95" waitingTime="0.00" waitingCount="0" stopTime="0.00" timeLoss="15.42" rerouteNo="1" devices="vehroute_44_0 tripinfo_44_0 routing_44_0" vType="car" speedFactor="1.12" vaporized=""/>
    <tripinfo id="93_0" depart="33358.00" departLane="140_0" departPos="5.10" departSpeed="0.00" departDelay="0.00" arrival="33528.00" arrivalLane="573_0" arrivalPos="11.35" arrivalSpeed="7.63" duration="170.00" routeLength="1037.18" waitingTime="0.00" waitingCount="0" stopTime="0.00" timeLoss="23.65" rerouteNo="1" devices="vehroute_93_0 tripinfo_93_0 routing_93_0" vType="car" speedFactor="0.97" vaporized=""/>
    <tripinfo id="87_0" depart="33401.00" departLane="407_0" departPos="5.10" departSpeed="0.00" departDelay="0.00" arrival="33581.00" arrivalLane="598_0" arrivalPos="0.20" arrivalSpeed="13.14" duration="180.00" routeLength="747.97" waitingTime="0.00" waitingCount="0" stopTime="0.00" timeLoss="28.27" rerouteNo="1" devices="vehroute_87_0 tripinfo_87_0 routing_87_0" vType="car" speedFactor="1.02" vaporized=""/>
    <tripinfo id="75_0" depart="33435.00" departLane="312_0" departPos="5.10" departSpeed="0.00" departDelay="0.00" arrival="33682.00" arrivalLane="49_0" arrivalPos="80.53" arrivalSpeed="3.66" duration="247.00" routeLength="852.52" waitingTime="0.00" waitingCount="0" stopTime="0.00" timeLoss="39.36" rerouteNo="1" devices="vehroute_75_0 tripinfo_75_0 routing_75_0" vType="car" speedFactor="0.99" vaporized=""/>
    <tripinfo id="83_0" depart="33492.00" departLane="64_0" departPos="5.10" departSpeed="0.00" departDelay="0.00" arrival="33688.00" arrivalLane="205_0" arrivalPos="28.85" arrivalSpeed="12.31" duration="196.00" routeLength="2116.59" waitingTime="0.00" waitingCount="0" stopTime="0.00" timeLoss="18.32" rerouteNo="1" devices="vehroute_83_0 tripinfo_83_0 routing_83_0" vType="car" speedFactor="0.94" vaporized=""/>
    <tripinfo id="67_0" depart="33707.00" departLane="613_0" departPos="5.10" departSpeed="0.00" departDelay="0.00" arrival="33747.00" arrivalLane="340_0" arrivalPos="15.20" arrivalSpeed="7.27" duration="40.00" routeLength="243.55" waitingTime="0.00" waitingCount="0" stopTime="0.00" timeLoss="5.74" rerouteNo="1" devices="vehroute_67_0 tripinfo_67_0 routing_67_0" vType="car" speedFactor="0.91" vaporized=""/>
    <tripinfo id="32_0" depart="33704.00" departLane="264_0" departPos="0.20" departSpeed="0.00" departDelay="0.00" arrival="33804.00" arrivalLane="571_0" arrivalPos="0.20" arrivalSpeed="6.64" duration="100.00" routeLength="635.78" waitingTime="0.00" waitingCount="0" stopTime="0.00" timeLoss="11.70" rerouteNo="1" devices="vehroute_32_0 tripinfo_32_0 routing_32_0" vType="car" speedFactor="0.88" vaporized=""/>
    <tripinfo id="56_0" depart="33818.00" departLane="273_0" departPos="4.67" departSpeed="0.00" departDelay="0.00" arrival="33882.00" arrivalLane="185_0" arrivalPos="0.10" arrivalSpeed="8.27" duration="64.00" routeLength="487.68" waitingTime="0.00" waitingCount="0" stopTime="0.00" timeLoss="6.84" rerouteNo="1" devices="vehroute_56_0 tripinfo_56_0 routing_56_0" vType="car" speedFactor="1.04" vaporized=""/>
    <tripinfo id="11_0" depart="33713.00" departLane="375_0" departPos="5.10" departSpeed="0.00" departDelay="0.00" arrival="34060.00" arrivalLane="176_0" arrivalPos="117.52" arrivalSpeed="6.40" duration="347.00" routeLength="1700.15" waitingTime="0.00" waitingCount="0" stopTime="0.00" timeLoss="47.73" rerouteNo="1" devices="vehroute_11_0 tripinfo_11_0 routing_11_0" vType="car" speedFactor="0.91" vaporized=""/>
    <tripinfo id="61_0" depart="33992.00" departLane="471_0" departPos="5.10" departSpeed="0.00" departDelay="0.00" arrival="34186.00" arrivalLane="31_0" arrivalPos="67.53" arrivalSpeed="6.32" duration="194.00" routeLength="995.39" waitingTime="0.00" waitingCount="0" stopTime="0.00" timeLoss="24.28" rerouteNo="1" devices="vehroute_61_0 tripinfo_61_0 routing_61_0" vType="car" speedFactor="1.02" vaporized=""/>