<?xml version="1.0" encoding="UTF-8"?>

<!-- generated on 2022-12-13 09:25:14 by Eclipse SUMO sumo Version 1.15.0
<configuration xmlns:xsi="http://www.w3.org/2001/XMLSchema-instance" xsi:noNamespaceSchemaLocation="http://sumo.dlr.de/xsd/sumoConfiguration.xsd">

    <input>
        <net-file value="MASA.net.xml"/>
        <route-files value="plans/plans5000.rou.xml"/>
    </input>

    <output>
        <summary-output value="output/5000Veh/summary.xml"/>
        <tripinfo-output value="output/5000Veh/tripinfos.xml"/>
        <vehroute-output value="output/5000Veh/vehroute.xml"/>
        <statistic-output value="output/5000Veh/stats.xml"/>
    </output>

    <time>
        <begin value="0"/>
        <end value="86400"/>
        <step-length value="1"/>
    </time>

    <traci_server>
        <remote-port value="48359"/>
    </traci_server>

</configuration>
-->

<tripinfos xmlns:xsi="http://www.w3.org/2001/XMLSchema-instance" xsi:noNamespaceSchemaLocation="http://sumo.dlr.de/xsd/tripinfo_file.xsd">
    <tripinfo id="667_0" depart="20094.00" departLane="119_0" departPos="5.08" departSpeed="0.00" departDelay="0.00" arrival="20227.00" arrivalLane="55_0" arrivalPos="0.30" arrivalSpeed="3.15" duration="133.00" routeLength="562.74" waitingTime="0.00" waitingCount="0" stopTime="0.00" timeLoss="19.19" rerouteNo="1" devices="vehroute_667_0 tripinfo_667_0 routing_667_0" vType="car" speedFactor="1.06" vaporized=""/>
    <tripinfo id="1763_0" depart="20214.00" departLane="409_0" departPos="5.10" departSpeed="0.00" departDelay="0.00" arrival="20283.00" arrivalLane="422_0" arrivalPos="44.12" arrivalSpeed="3.61" duration="69.00" routeLength="338.58" waitingTime="0.00" waitingCount="0" stopTime="0.00" timeLoss="11.11" rerouteNo="1" devices="vehroute_1763_0 tripinfo_1763_0 routing_1763_0" vType="car" speedFactor="0.94" vaporized=""/>
    <tripinfo id="28_0" depart="20938.00" departLane="272_0" departPos="4.65" departSpeed="0.00" departDelay="0.00" arrival="21101.00" arrivalLane="211_0" arrivalPos="22.99" arrivalSpeed="13.62" duration="163.00" routeLength="1932.16" waitingTime="0.00" waitingCount="0" stopTime="0.00" timeLoss="16.92" rerouteNo="1" devices="vehroute_28_0 tripinfo_28_0 routing_28_0" vType="car" speedFactor="1.01" vaporized=""/>
    <tripinfo id="2423_0" depart="21456.00" departLane="451_0" departPos="5.10" departSpeed="0.00" departDelay="0.00" arrival="21501.00" arrivalLane="109_0" arrivalPos="3.55" arrivalSpeed="4.50" duration="45.00" routeLength="170.19" waitingTime="0.00" waitingCount="0" stopTime="0.00" timeLoss="6.63" rerouteNo="1" devices="vehroute_2423_0 tripinfo_2423_0 routing_2423_0" vType="car" speedFactor="1.08" vaporized=""/>
    <tripinfo id="1099_0" depart="22494.00" departLane="251_0" departPos="0.20" departSpeed="0.00" departDelay="0.00" arrival="22743.00" arrivalLane="123_0" arrivalPos="2.79" arrivalSpeed="3.85" duration="249.00" routeLength="964.54" waitingTime="0.00" waitingCount="0" stopTime="0.00" timeLoss="35.90" rerouteNo="1" devices="vehroute_1099_0 tripinfo_1099_0 routing_1099_0" vType="car" speedFactor="1.03" vaporized=""/>
    <tripinfo id="792_0" depart="22814.00" departLane="573_0" departPos="5.10" departSpeed="0.00" departDelay="0.00" arrival="22951.00" arrivalLane="588_0" arrivalPos="3.11" arrivalSpeed="6.00" duration="137.00" routeLength="832.66" waitingTime="0.00" waitingCount="0" stopTime="0.00" timeLoss="14.33" rerouteNo="1" devices="vehroute_792_0 tripinfo_792_0 routing_792_0" vType="car" speedFactor="0.83" vaporized=""/>
    <tripinfo id="1238_0" depart="23059.00" departLane="350_0" departPos="5.10" departSpeed="0.00" departDelay="0.00" arrival="23171.00" arrivalLane="236_0" arrivalPos="87.64" arrivalSpeed="13.33" duration="112.00" routeLength="1307.25" waitingTime="0.00" waitingCount="0" stopTime="0.00" timeLoss="12.22" rerouteNo="1" devices="vehroute_1238_0 tripinfo_1238_0 routing_1238_0" vType="car" speedFactor="1.05" vaporized=""/>
    <tripinfo id="1996_0" depart="23168.00" departLane="431_0" departPos="5.10" departSpeed="0.00" departDelay="0.00" arrival="23298.00" arrivalLane="66_0" arrivalPos="0.80" arrivalSpeed="2.83" duration="130.00" routeLength="720.57" waitingTime="0.00" waitingCount="0" stopTime="0.00" timeLoss="15.79" rerouteNo="1" devices="vehroute_1996_0 tripinfo_1996_0 routing_1996_0" vType="car" speedFactor="0.94" vaporized=""/>
    <tripinfo id="1337_0" depart="23166.00" departLane="373_0" departPos="5.10" departSpeed="0.00" departDelay="0.00" arrival="23601.00" arrivalLane="495_0" arrivalPos="7.23" arrivalSpeed="2.68" duration="435.00" routeLength="1817.03" waitingTime="0.00" waitingCount="0" stopTime="0.00" timeLoss="67.86" rerouteNo="1" devices="vehroute_1337_0 tripinfo_1337_0 routing_1337_0" vType="car" speedFactor="0.89" vaporized=""/>
    <tripinfo id="1785_0" depart="23444.00" departLane="396_0" departPos="5.10" departSpeed="0.00" departDelay="0.00" arrival="23657.00" arrivalLane="5_0" arrivalPos="0.92" arrivalSpeed="2.57" duration="213.00" routeLength="619.30" waitingTime="0.00" waitingCount="0" stopTime="0.00" timeLoss="39.24" rerouteNo="1" devices="vehroute_1785_0 tripinfo_1785_0 routing_1785_0" vType="car" speedFactor="0.86" vaporized=""/>
    <tripinfo id="2032_0" depart="23603.00" departLane="528_0" departPos="5.10" departSpeed="0.00" departDelay="0.00" arrival="23675.00" arrivalLane="351_0" arrivalPos="28.70" arrivalSpeed="7.90" duration="72.00" routeLength="742.96" waitingTime="0.00" waitingCount="0" stopTime="0.00" timeLoss="10.79" rerouteNo="1" devices="vehroute_2032_0 tripinfo_2032_0 routing_2032_0" vType="car" speedFactor="1.09" vaporized=""/>
    <tripinfo id="1568_0" depart="23658.00" departLane="196_0" departPos="2.55" departSpeed="0.00" departDelay="0.00" arrival="23771.00" arrivalLane="238_0" arrivalPos="90.49" arrivalSpeed="13.34" duration="113.00" routeLength="1321.60" waitingTime="0.00" waitingCount="0" stopTime="0.00" timeLoss="13.77" rerouteNo="1" devices="vehroute_1568_0 tripinfo_1568_0 routing_1568_0" vType="car" speedFactor="1.03" vaporized=""/>
    <tripinfo id="2098_0" depart="23888.00" departLane="7_0" departPos="5.10" departSpeed="0.00" departDelay="0.00" arrival="24112.00" arrivalLane="256_0" arrivalPos="0.20" arrivalSpeed="8.84" duration="224.00" routeLength="979.93" waitingTime="0.00" waitingCount="0" stopTime="0.00" timeLoss="31.38" rerouteNo="1" devices="vehroute_2098_0 tripinfo_2098_0 routing_2098_0" vType="car" speedFactor="1.12" vaporized=""/>
    <tripinfo id="1588_0" depart="23923.00" departLane="424_0" departPos="5.10" departSpeed="0.00" departDelay="0.00" arrival="24131.00" arrivalLane="159_0" arrivalPos="4.91" arrivalSpeed="3.88" duration="208.00" routeLength="941.16" waitingTime="0.00" waitingCount="0" stopTime="0.00" timeLoss="27.53" rerouteNo="1" devices="vehroute_1588_0 tripinfo_1588_0 routing_1588_0" vType="car" speedFactor="0.99" vaporized=""/>
    <tripinfo id="1343_0" depart="24086.00" departLane="400_0" departPos="5.10" departSpeed="0.00" departDelay="0.00" arrival="24187.00" arrivalLane="109_0" arrivalPos="3.55" arrivalSpeed="3.41" duration="101.00" routeLength="327.79" waitingTime="0.00" waitingCount="0" stopTime="0.00" timeLoss="16.81" rerouteNo="1" devices="vehroute_1343_0 tripinfo_1343_0 routing_1343_0" vType="car" speedFactor="0.94" vaporized=""/>
    <tripinfo id="1399_0" depart="23801.00" departLane="49_0" departPos="5.10" departSpeed="0.00" departDelay="0.00" arrival="24213.00" arrivalLane="457_0" arrivalPos="31.37" arrivalSpeed="3.76" duration="412.00" routeLength="1983.57" waitingTime="0.00" waitingCount="0" stopTime="0.00" timeLoss="52.62" rerouteNo="1" devices="vehroute_1399_0 tripinfo_1399_0 routing_1399_0" vType="car" speedFactor="1.05" vaporized=""/>
    <tripinfo id="2119_0" depart="24127.00" departLane="527_0" departPos="5.10" departSpeed="0.00" departDelay="0.00" arrival="24223.00" arrivalLane="371_0" arrivalPos="4.67" arrivalSpeed="5.73" duration="96.00" routeLength="554.30" waitingTime="0.00" waitingCount="0" stopTime="0.00" timeLoss="11.16" rerouteNo="1" devices="vehroute_2119_0 tripinfo_2119_0 routing_2119_0" vType="car" speedFactor="0.94" vaporized=""/>
    <tripinfo id="1769_0" depart="24050.00" departLane="159_0" departPos="4.91" departSpeed="0.00" departDelay="0.00" arrival="24233.00" arrivalLane="522_0" arrivalPos="41.54" arrivalSpeed="11.86" duration="183.00" routeLength="846.73" waitingTime="0.00" waitingCount="0" stopTime="0.00" timeLoss="25.90" rerouteNo="1" devices="vehroute_1769_0 tripinfo_1769_0 routing_1769_0" vType="car" speedFactor="0.88" vaporized=""/>
    <tripinfo id="2429_0" depart="24187.00" departLane="13_0" departPos="1.29" departSpeed="0.00" departDelay="0.00" arrival="24255.00" arrivalLane="324_0" arrivalPos="0.91" arrivalSpeed="3.18" duration="68.00" routeLength="559.73" waitingTime="0.00" waitingCount="0" stopTime="0.00" timeLoss="6.87" rerouteNo="1" devices="vehroute_2429_0 tripinfo_2429_0 routing_2429_0" vType="car" speedFactor="1.16" vaporized=""/>
    <tripinfo id="1488_0" depart="24293.00" departLane="578_0" departPos="5.10" departSpeed="0.00" departDelay="0.00" arrival="24390.00" arrivalLane="615_0" arrivalPos="11.17" arrivalSpeed="6.43" duration="97.00" routeLength="854.08" waitingTime="0.00" waitingCount="0" stopTime="0.00" timeLoss="12.38" rerouteNo="1" devices="vehroute_1488_0 tripinfo_1488_0 routing_1488_0" vType="car" speedFactor="1.02" vaporized=""/>
    <tripinfo id="1465_0" depart="24008.00" departLane="17_0" departPos="1.54" departSpeed="0.00" departDelay="0.00" arrival="24399.00" arrivalLane="76_0" arrivalPos="0.20" arrivalSpeed="2.65" duration="391.00" routeLength="1546.14" waitingTime="0.00" waitingCount="0" stopTime="0.00" timeLoss="60.34" rerouteNo="1" devices="vehroute_1465_0 tripinfo_1465_0 routing_1465_0" vType="car" speedFactor="0.93" vaporized=""/>
    <tripinfo id="1553_0" depart="24358.00" departLane="286_0" departPos="3.14" departSpeed="0.00" departDelay="0.00" arrival="24441.00" arrivalLane="62_0" arrivalPos="26.69" arrivalSpeed="3.64" duration="83.00" routeLength="360.67" waitingTime="0.00" waitingCount="0" stopTime="0.00" timeLoss="13.59" rerouteNo="1" devices="vehroute_1553_0 tripinfo_1553_0 routing_1553_0" vType="car" speedFactor="0.97" vaporized=""/>
    <tripinfo id="1537_0" depart="24489.00" departLane="217_0" departPos="5.10" departSpeed="0.00" departDelay="0.00" arrival="24575.00" arrivalLane="267_0" arrivalPos="4.44" arrivalSpeed="6.07" duration="86.00" routeLength="794.72" waitingTime="0.00" waitingCount="0" stopTime="0.00" timeLoss="9.91" rerouteNo="1" devices="vehroute_1537_0 tripinfo_1537_0 routing_1537_0" vType="car" speedFactor="0.83" vaporized=""/>
    <tripinfo id="487_0" depart="24560.00" departLane="306_0" departPos="0.20" departSpeed="0.00" departDelay="0.00" arrival="24616.00" arrivalLane="425_0" arrivalPos="63.58" arrivalSpeed="3.00" duration="56.00" routeLength="244.25" waitingTime="0.00" waitingCount="0" stopTime="0.00" timeLoss="9.34" rerouteNo="1" devices="vehroute_487_0 tripinfo_487_0 routing_487_0" vType="car" speedFactor="0.87" vaporized=""/>
    <tripinfo id="566_0" depart="24331.00" departLane="108_0" departPos="5.10" departSpeed="0.00" departDelay="0.00" arrival="24682.00" arrivalLane="169_0" arrivalPos="63.60" arrivalSpeed="2.92" duration="351.00" routeLength="1255.56" waitingTime="0.00" waitingCount="0" stopTime="0.00" timeLoss="52.40" rerouteNo="1" devices="vehroute_566_0 tripinfo_566_0 routing_566_0" vType="car" speedFactor="1.01" vaporized=""/>
    <tripinfo id="923_0" depart="24626.00" departLane="358_0" departPos="5.10" departSpeed="0.00" departDelay="0.00" arrival="24738.00" arrivalLane="28_0" arrivalPos="51.39" arrivalSpeed="7.65" duration="112.00" routeLength="817.68" waitingTime="0.00" waitingCount="0" stopTime="0.00" timeLoss="11.87" rerouteNo="1" devices="vehroute_923_0 tripinfo_923_0 routing_923_0" vType="car" speedFactor="1.13" vaporized=""/>
    <tripinfo id="2335_0" depart="24613.00" departLane="173_0" departPos="5.10" departSpeed="0.00" departDelay="0.00" arrival="24758.00" arrivalLane="575_0" arrivalPos="0.20" arrivalSpeed="3.12" duration="145.00" routeLength="1003.26" waitingTime="0.00" waitingCount="0" stopTime="0.00" timeLoss="17.00" rerouteNo="1" devices="vehroute_2335_0 tripinfo_2335_0 routing_2335_0" vType="car" speedFactor="0.95" vaporized=""/>
    <tripinfo id="220_0" depart="24606.00" departLane="621_0" departPos="5.10" departSpeed="0.00" departDelay="0.00" arrival="24761.00" arrivalLane="475_0" arrivalPos="0.20" arrivalSpeed="3.68" duration="155.00" routeLength="959.18" waitingTime="0.00" waitingCount="0" stopTime="0.00" timeLoss="23.53" rerouteNo="1" devices="vehroute_220_0 tripinfo_220_0 routing_220_0" vType="car" speedFactor="0.92" vaporized=""/>
    <tripinfo id="2388_0" depart="24466.00" departLane="578_0" departPos="5.10" departSpeed="0.00" departDelay="0.00" arrival="24776.00" arrivalLane="88_0" arrivalPos="24.96" arrivalSpeed="3.53" duration="310.00" routeLength="970.53" waitingTime="0.00" waitingCount="0" stopTime="0.00" timeLoss="52.99" rerouteNo="1" devices="vehroute_2388_0 tripinfo_2388_0 routing_2388_0" vType="car" speedFactor="0.89" vaporized=""/>
    <tripinfo id="2030_0" depart="24776.00" departLane="520_0" departPos="5.10" departSpeed="0.00" departDelay="0.00" arrival="24798.00" arrivalLane="514_0" arrivalPos="46.11" arrivalSpeed="12.77" duration="22.00" routeLength="233.88" waitingTime="0.00" waitingCount="0" stopTime="0.00" timeLoss="3.48" rerouteNo="1" devices="vehroute_2030_0 tripinfo_2030_0 routing_2030_0" vType="car" speedFactor="0.93" vaporized=""/>
    <tripinfo id="2419_0" depart="24958.00" departLane="567_0" departPos="4.78" departSpeed="0.00" departDelay="0.00" arrival="24973.00" arrivalLane="15_0" arrivalPos="3.74" arrivalSpeed="3.34" duration="15.00" routeLength="58.57" waitingTime="0.00" waitingCount="0" stopTime="0.00" timeLoss="3.15" rerouteNo="1" devices="vehroute_2419_0 tripinfo_2419_0 routing_2419_0" vType="car" speedFactor="1.01" vaporized=""/>
    <tripinfo id="665_0" depart="24893.00" departLane="610_0" departPos="5.10" departSpeed="0.00" departDelay="0.00" arrival="25084.00" arrivalLane="5_0" arrivalPos="0.92" arrivalSpeed="4.39" duration="191.00" routeLength="1415.75" waitingTime="0.00" waitingCount="0" stopTime="0.00" timeLoss="16.93" rerouteNo="1" devices="vehroute_665_0 tripinfo_665_0 routing_665_0" vType="car" speedFactor="1.15" vaporized=""/>
    <tripinfo id="1163_0" depart="24889.00" departLane="14_0" departPos="5.10" departSpeed="0.00" departDelay="0.00" arrival="25086.00" arrivalLane="7_0" arrivalPos="67.73" arrivalSpeed="4.01" duration="197.00" routeLength="1389.94" waitingTime="0.00" waitingCount="0" stopTime="0.00" timeLoss="20.35" rerouteNo="1" devices="vehroute_1163_0 tripinfo_1163_0 routing_1163_0" vType="car" speedFactor="1.18" vaporized=""/>
    <tripinfo id="1028_0" depart="25046.00" departLane="512_0" departPos="5.10" departSpeed="0.00" departDelay="0.00" arrival="25109.00" arrivalLane="222_0" arrivalPos="29.61" arrivalSpeed="12.95" duration="63.00" routeLength="720.80" waitingTime="0.00" waitingCount="0" stopTime="0.00" timeLoss="9.55" rerouteNo="1" devices="vehroute_1028_0 tripinfo_1028_0 routing_1028_0" vType="car" speedFactor="0.99" vaporized=""/>
    <tripinfo id="2073_0" depart="25081.00" departLane="414_0" departPos="5.10" departSpeed="0.00" departDelay="0.00" arrival="25181.00" arrivalLane="464_0" arrivalPos="15.99" arrivalSpeed="3.63" duration="100.00" routeLength="465.93" waitingTime="0.00" waitingCount="0" stopTime="0.00" timeLoss="14.84" rerouteNo="1" devices="vehroute_2073_0 tripinfo_2073_0 routing_2073_0" vType="car" speedFactor="0.97" vaporized=""/>
    <tripinfo id="2079_0" depart="25046.00" departLane="533_0" departPos="5.10" departSpeed="0.00" departDelay="0.00" arrival="25183.00" arrivalLane="621_0" arrivalPos="88.04" arrivalSpeed="6.37" duration="137.00" routeLength="686.75" waitingTime="0.00" waitingCount="0" stopTime="0.00" timeLoss="18.32" rerouteNo="1" devices="vehroute_2079_0 tripinfo_2079_0 routing_2079_0" vType="car" speedFactor="1.02" vaporized=""/>
    <tripinfo id="572_0" depart="25099.00" departLane="105_0" departPos="5.10" departSpeed="0.00" departDelay="0.00" arrival="25228.00" arrivalLane="532_0" arrivalPos="61.97" arrivalSpeed="4.55" duration="129.00" routeLength="603.39" waitingTime="0.00" waitingCount="0" stopTime="0.00" timeLoss="17.42" rerouteNo="1" devices="vehroute_572_0 tripinfo_572_0 routing_572_0" vType="car" speedFactor="1.18" vaporized=""/>
    <tripinfo id="855_0" depart="25119.00" departLane="584_0" departPos="5.10" departSpeed="0.00" departDelay="0.00" arrival="25236.00" arrivalLane="251_0" arrivalPos="0.20" arrivalSpeed="8.65" duration="117.00" routeLength="937.88" waitingTime="0.00" waitingCount="0" stopTime="0.00" timeLoss="13.80" rerouteNo="1" devices="vehroute_855_0 tripinfo_855_0 routing_855_0" vType="car" speedFactor="1.10" vaporized=""/>
    <tripinfo id="1233_0" depart="25163.00" departLane="368_0" departPos="4.56" departSpeed="0.00" departDelay="0.00" arrival="25245.00" arrivalLane="173_0" arrivalPos="80.96" arrivalSpeed="7.15" duration="82.00" routeLength="484.58" waitingTime="0.00" waitingCount="0" stopTime="0.00" timeLoss="9.86" rerouteNo="1" devices="vehroute_1233_0 tripinfo_1233_0 routing_1233_0" vType="car" speedFactor="0.90" vaporized=""/>
    <tripinfo id="1222_0" depart="25223.00" departLane="343_0" departPos="5.10" departSpeed="0.00" departDelay="0.00" arrival="25278.00" arrivalLane="548_0" arrivalPos="3.82" arrivalSpeed="4.32" duration="55.00" routeLength="311.42" waitingTime="0.00" waitingCount="0" stopTime="0.00" timeLoss="9.72" rerouteNo="1" devices="vehroute_1222_0 tripinfo_1222_0 routing_1222_0" vType="car" speedFactor="1.09" vaporized=""/>
    <tripinfo id="1694_0" depart="24982.00" departLane="162_0" departPos="4.90" departSpeed="0.00" departDelay="0.00" arrival="25340.00" arrivalLane="191_0" arrivalPos="192.36" arrivalSpeed="3.99" duration="358.00" routeLength="1833.89" waitingTime="0.00" waitingCount="0" stopTime="0.00" timeLoss="43.88" rerouteNo="1" devices="vehroute_1694_0 tripinfo_1694_0 routing_1694_0" vType="car" speedFactor="1.17" vaporized=""/>
    <tripinfo id="297_0" depart="25303.00" departLane="119_0" departPos="5.08" departSpeed="0.00" departDelay="0.00" arrival="25356.00" arrivalLane="629_0" arrivalPos="13.10" arrivalSpeed="7.48" duration="53.00" routeLength="402.29" waitingTime="0.00" waitingCount="0" stopTime="0.00" timeLoss="7.22" rerouteNo="1" devices="vehroute_297_0 tripinfo_297_0 routing_297_0" vType="car" speedFactor="1.09" vaporized=""/>
    <tripinfo id="2283_0" depart="25287.00" departLane="332_0" departPos="5.10" departSpeed="0.00" departDelay="0.00" arrival="25358.00" arrivalLane="72_0" arrivalPos="37.73" arrivalSpeed="3.52" duration="71.00" routeLength="259.30" waitingTime="0.00" waitingCount="0" stopTime="0.00" timeLoss="11.06" rerouteNo="1" devices="vehroute_2283_0 tripinfo_2283_0 routing_2283_0" vType="car" speedFactor="1.04" vaporized=""/>
    <tripinfo id="1522_0" depart="25194.00" departLane="217_0" departPos="5.10" departSpeed="0.00" departDelay="0.00" arrival="25389.00" arrivalLane="102_0" arrivalPos="53.56" arrivalSpeed="3.17" duration="195.00" routeLength="915.42" waitingTime="0.00" waitingCount="0" stopTime="0.00" timeLoss="30.41" rerouteNo="1" devices="vehroute_1522_0 tripinfo_1522_0 routing_1522_0" vType="car" speedFactor="0.96" vaporized=""/>
    <tripinfo id="2129_0" depart="25399.00" departLane="437_0" departPos="5.10" departSpeed="0.00" departDelay="0.00" arrival="25462.00" arrivalLane="583_0" arrivalPos="4.21" arrivalSpeed="6.54" duration="63.00" routeLength="347.09" waitingTime="0.00" waitingCount="0" stopTime="0.00" timeLoss="8.46" rerouteNo="1" devices="vehroute_2129_0 tripinfo_2129_0 routing_2129_0" vType="car" speedFactor="1.02" vaporized=""/>
    <tripinfo id="367_0" depart="25430.00" departLane="440_0" departPos="3.76" departSpeed="0.00" departDelay="0.00" arrival="25467.00" arrivalLane="569_0" arrivalPos="13.74" arrivalSpeed="8.33" duration="37.00" routeLength="235.43" waitingTime="0.00" waitingCount="0" stopTime="0.00" timeLoss="4.34" rerouteNo="1" devices="vehroute_367_0 tripinfo_367_0 routing_367_0" vType="car" speedFactor="1.00" vaporized=""/>
    <tripinfo id="2226_0" depart="25388.00" departLane="227_0" departPos="5.10" departSpeed="0.00" departDelay="0.00" arrival="25496.00" arrivalLane="258_0" arrivalPos="3.32" arrivalSpeed="5.92" duration="108.00" routeLength="992.94" waitingTime="0.00" waitingCount="0" stopTime="0.00" timeLoss="12.58" rerouteNo="1" devices="vehroute_2226_0 tripinfo_2226_0 routing_2226_0" vType="car" speedFactor="0.85" vaporized=""/>
    <tripinfo id="715_0" depart="25189.00" departLane="72_0" departPos="5.10" departSpeed="0.00" departDelay="0.00" arrival="25498.00" arrivalLane="430_0" arrivalPos="0.20" arrivalSpeed="3.76" duration="309.00" routeLength="1404.69" waitingTime="0.00" waitingCount="0" stopTime="0.00" timeLoss="43.87" rerouteNo="1" devices="vehroute_715_0 tripinfo_715_0 routing_715_0" vType="car" speedFactor="1.03" vaporized=""/>
    <tripinfo id="25_0" depart="25367.00" departLane="279_0" departPos="5.10" departSpeed="0.00" departDelay="0.00" arrival="25509.00" arrivalLane="435_0" arrivalPos="5.15" arrivalSpeed="2.63" duration="142.00" routeLength="894.69" waitingTime="0.00" waitingCount="0" stopTime="0.00" timeLoss="22.62" rerouteNo="1" devices="vehroute_25_0 tripinfo_25_0 routing_25_0" vType="car" speedFactor="0.88" vaporized=""/>
    <tripinfo id="206_0" depart="25397.00" departLane="30_0" departPos="5.10" departSpeed="0.00" departDelay="0.00" arrival="25511.00" arrivalLane="475_0" arrivalPos="0.20" arrivalSpeed="3.78" duration="114.00" routeLength="737.50" waitingTime="0.00" waitingCount="0" stopTime="0.00" timeLoss="15.75" rerouteNo="1" devices="vehroute_206_0 tripinfo_206_0 routing_206_0" vType="car" speedFactor="1.17" vaporized=""/>
    <tripinfo id="991_0" depart="25380.00" departLane="465_0" departPos="5.10" departSpeed="0.00" departDelay="0.00" arrival="25530.00" arrivalLane="526_0" arrivalPos="16.61" arrivalSpeed="11.17" duration="150.00" routeLength="674.96" waitingTime="0.00" waitingCount="0" stopTime="0.00" timeLoss="20.91" rerouteNo="1" devices="vehroute_991_0 tripinfo_991_0 routing_991_0" vType="car" speedFactor="0.85" vaporized=""/>
    <tripinfo id="411_0" depart="25255.00" departLane="446_0" departPos="5.10" departSpeed="0.00" departDelay="0.00" arrival="25532.00" arrivalLane="613_0" arrivalPos="9.29" arrivalSpeed="6.26" duration="277.00" routeLength="1348.78" waitingTime="0.00" waitingCount="0" stopTime="0.00" timeLoss="39.83" rerouteNo="1" devices="vehroute_411_0 tripinfo_411_0 routing_411_0" vType="car" speedFactor="1.04" vaporized=""/>
    <tripinfo id="996_0" depart="25323.00" departLane="284_0" departPos="5.10" departSpeed="0.00" departDelay="0.00" arrival="25576.00" arrivalLane="470_0" arrivalPos="65.88" arrivalSpeed="3.55" duration="253.00" routeLength="1294.09" waitingTime="0.00" waitingCount="0" stopTime="0.00" timeLoss="33.65" rerouteNo="1" devices="vehroute_996_0 tripinfo_996_0 routing_996_0" vType="car" speedFactor="1.00" vaporized=""/>
    <tripinfo id="250_0" depart="25534.00" departLane="345_0" departPos="5.10" departSpeed="0.00" departDelay="0.00" arrival="25598.00" arrivalLane="538_0" arrivalPos="3.22" arrivalSpeed="4.09" duration="64.00" routeLength="409.23" waitingTime="0.00" waitingCount="0" stopTime="0.00" timeLoss="9.11" rerouteNo="1" devices="vehroute_250_0 tripinfo_250_0 routing_250_0" vType="car" speedFactor="1.14" vaporized=""/>
    <tripinfo id="1909_0" depart="25506.00" departLane="225_0" departPos="5.10" departSpeed="0.00" departDelay="0.00" arrival="25599.00" arrivalLane="483_0" arrivalPos="9.16" arrivalSpeed="6.42" duration="93.00" routeLength="607.31" waitingTime="0.00" waitingCount="0" stopTime="0.00" timeLoss="12.89" rerouteNo="1" devices="vehroute_1909_0 tripinfo_1909_0 routing_1909_0" vType="car" speedFactor="1.00" vaporized=""/>
    <tripinfo id="1001_0" depart="25579.00" departLane="159_0" departPos="4.91" departSpeed="0.00" departDelay="0.00" arrival="25683.00" arrivalLane="498_0" arrivalPos="5.54" arrivalSpeed="6.78" duration="104.00" routeLength="482.79" waitingTime="0.00" waitingCount="0" stopTime="0.00" timeLoss="16.13" rerouteNo="1" devices="vehroute_1001_0 tripinfo_1001_0 routing_1001_0" vType="car" speedFactor="1.08" vaporized=""/>
    <tripinfo id="2418_0" depart="25343.00" departLane="309_0" departPos="0.20" departSpeed="0.00" departDelay="0.00" arrival="25699.00" arrivalLane="504_0" arrivalPos="351.39" arrivalSpeed="2.79" duration="356.00" routeLength="1627.32" waitingTime="0.00" waitingCount="0" stopTime="0.00" timeLoss="50.37" rerouteNo="1" devices="vehroute_2418_0 tripinfo_2418_0 routing_2418_0" vType="car" speedFactor="0.90" vaporized=""/>
    <tripinfo id="854_0" depart="25628.00" departLane="177_0" departPos="5.10" departSpeed="0.00" departDelay="0.00" arrival="25709.00" arrivalLane="260_0" arrivalPos="0.24" arrivalSpeed="8.25" duration="81.00" routeLength="614.71" waitingTime="0.00" waitingCount="0" stopTime="0.00" timeLoss="8.17" rerouteNo="1" devices="vehroute_854_0 tripinfo_854_0 routing_854_0" vType="car" speedFactor="1.02" vaporized=""/>
    <tripinfo id="1285_0" depart="25629.00" departLane="327_0" departPos="5.10" departSpeed="0.00" departDelay="0.00" arrival="25751.00" arrivalLane="344_0" arrivalPos="80.07" arrivalSpeed="7.99" duration="122.00" routeLength="655.34" waitingTime="0.00" waitingCount="0" stopTime="0.00" timeLoss="14.82" rerouteNo="1" devices="vehroute_1285_0 tripinfo_1285_0 routing_1285_0" vType="car" speedFactor="0.99" vaporized=""/>
    <tripinfo id="2338_0" depart="25670.00" departLane="341_0" departPos="5.10" departSpeed="0.00" departDelay="0.00" arrival="25770.00" arrivalLane="117_0" arrivalPos="5.65" arrivalSpeed="3.25" duration="100.00" routeLength="378.56" waitingTime="0.00" waitingCount="0" stopTime="0.00" timeLoss="19.03" rerouteNo="1" devices="vehroute_2338_0 tripinfo_2338_0 routing_2338_0" vType="car" speedFactor="0.88" vaporized=""/>
    <tripinfo id="1860_0" depart="25548.00" departLane="470_0" departPos="5.10" departSpeed="0.00" departDelay="0.00" arrival="25804.00" arrivalLane="476_0" arrivalPos="0.20" arrivalSpeed="3.29" duration="256.00" routeLength="1249.96" waitingTime="0.00" waitingCount="0" stopTime="0.00" timeLoss="34.55" rerouteNo="1" devices="vehroute_1860_0 tripinfo_1860_0 routing_1860_0" vType="car" speedFactor="1.02" vaporized=""/>
    <tripinfo id="2135_0" depart="25705.00" departLane="309_0" departPos="0.20" departSpeed="0.00" departDelay="0.00" arrival="25838.00" arrivalLane="595_0" arrivalPos="97.02" arrivalSpeed="12.12" duration="133.00" routeLength="577.64" waitingTime="0.00" waitingCount="0" stopTime="0.00" timeLoss="25.78" rerouteNo="1" devices="vehroute_2135_0 tripinfo_2135_0 routing_2135_0" vType="car" speedFactor="0.91" vaporized=""/>
    <tripinfo id="2144_0" depart="25567.00" departLane="272_0" departPos="4.65" departSpeed="0.00" departDelay="0.00" arrival="25861.00" arrivalLane="50_0" arrivalPos="85.02" arrivalSpeed="3.91" duration="294.00" routeLength="1067.01" waitingTime="0.00" waitingCount="0" stopTime="0.00" timeLoss="48.10" rerouteNo="1" devices="vehroute_2144_0 tripinfo_2144_0 routing_2144_0" vType="car" speedFactor="0.97" vaporized=""/>
    <tripinfo id="2289_0" depart="25626.00" departLane="450_0" departPos="5.10" departSpeed="0.00" departDelay="0.00" arrival="25862.00" arrivalLane="192_0" arrivalPos="299.75" arrivalSpeed="4.43" duration="236.00" routeLength="872.64" waitingTime="0.00" waitingCount="0" stopTime="0.00" timeLoss="48.25" rerouteNo="1" devices="vehroute_2289_0 tripinfo_2289_0 routing_2289_0" vType="car" speedFactor="1.12" vaporized=""/>
    <tripinfo id="1533_0" depart="25412.00" departLane="170_0" departPos="5.10" departSpeed="0.00" departDelay="0.00" arrival="25865.00" arrivalLane="359_0" arrivalPos="64.53" arrivalSpeed="7.13" duration="453.00" routeLength="2295.84" waitingTime="0.00" waitingCount="0" stopTime="0.00" timeLoss="56.12" rerouteNo="1" devices="vehroute_1533_0 tripinfo_1533_0 routing_1533_0" vType="car" speedFactor="1.10" vaporized=""/>
    <tripinfo id="2077_0" depart="25838.00" departLane="512_0" departPos="5.10" departSpeed="0.00" departDelay="0.00" arrival="25878.00" arrivalLane="606_0" arrivalPos="4.70" arrivalSpeed="6.98" duration="40.00" routeLength="299.43" waitingTime="0.00" waitingCount="0" stopTime="0.00" timeLoss="7.71" rerouteNo="1" devices="vehroute_2077_0 tripinfo_2077_0 routing_2077_0" vType="car" speedFactor="0.96" vaporized=""/>
    <tripinfo id="24_0" depart="25860.00" departLane="433_0" departPos="5.10" departSpeed="0.00" departDelay="0.00" arrival="25900.00" arrivalLane="342_0" arrivalPos="50.38" arrivalSpeed="7.30" duration="40.00" routeLength="202.16" waitingTime="0.00" waitingCount="0" stopTime="0.00" timeLoss="6.25" rerouteNo="1" devices="vehroute_24_0 tripinfo_24_0 routing_24_0" vType="car" speedFactor="1.03" vaporized=""/>
    <tripinfo id="1430_0" depart="25868.00" departLane="525_0" departPos="5.10" departSpeed="0.00" departDelay="0.00" arrival="25938.00" arrivalLane="252_0" arrivalPos="4.21" arrivalSpeed="7.40" duration="70.00" routeLength="685.93" waitingTime="0.00" waitingCount="0" stopTime="0.00" timeLoss="11.35" rerouteNo="1" devices="vehroute_1430_0 tripinfo_1430_0 routing_1430_0" vType="car" speedFactor="1.01" vaporized=""/>
    <tripinfo id="285_0" depart="25526.00" departLane="203_0" departPos="5.10" departSpeed="0.00" departDelay="0.00" arrival="25947.00" arrivalLane="155_0" arrivalPos="4.90" arrivalSpeed="3.04" duration="421.00" routeLength="1627.86" waitingTime="0.00" waitingCount="0" stopTime="0.00" timeLoss="63.08" rerouteNo="1" devices="vehroute_285_0 tripinfo_285_0 routing_285_0" vType="car" speedFactor="0.90" vaporized=""/>