<?xml version="1.0" encoding="UTF-8"?>

<!-- generated on 2023-03-08 14:11:55 by Eclipse SUMO sumo Version 1.16.0
<configuration xmlns:xsi="http://www.w3.org/2001/XMLSchema-instance" xsi:noNamespaceSchemaLocation="http://sumo.dlr.de/xsd/sumoConfiguration.xsd">

    <input>
        <net-file value="6k/MASA.net.xml"/>
        <route-files value="6k/plans.rou.xml"/>
        <additional-files value="6k/MASA.add.xml"/>
    </input>

    <output>
        <summary-output value="6k/../output/6k/summary.xml"/>
        <tripinfo-output value="6k/../output/6k/tripinfos.xml"/>
        <vehroute-output value="6k/../output/6k/vehroute.xml"/>
        <statistic-output value="6k/../output/6k/stats.xml"/>
    </output>

    <time>
        <begin value="0"/>
        <end value="86400"/>
        <step-length value="1"/>
    </time>

    <traci_server>
        <remote-port value="57499"/>
    </traci_server>

</configuration>
-->

<tripinfos xmlns:xsi="http://www.w3.org/2001/XMLSchema-instance" xsi:noNamespaceSchemaLocation="http://sumo.dlr.de/xsd/tripinfo_file.xsd">
</tripinfos>
