<?xml version="1.0" encoding="UTF-8"?>

<!-- generated on 2023-02-23 19:17:20 by Eclipse SUMO sumo Version 1.16.0
<configuration xmlns:xsi="http://www.w3.org/2001/XMLSchema-instance" xsi:noNamespaceSchemaLocation="http://sumo.dlr.de/xsd/sumoConfiguration.xsd">

    <input>
        <net-file value="5k/MASA.net.xml"/>
        <route-files value="5k/plans.rou.xml"/>
        <additional-files value="5k/MASA.add.xml"/>
    </input>

    <output>
        <summary-output value="5k/../output/5k/summary.xml"/>
        <tripinfo-output value="5k/../output/5k/tripinfos.xml"/>
        <vehroute-output value="5k/../output/5k/vehroute.xml"/>
        <statistic-output value="5k/../output/5k/stats.xml"/>
    </output>

    <time>
        <begin value="0"/>
        <end value="86400"/>
        <step-length value="1"/>
    </time>

</configuration>
-->

<tripinfos xmlns:xsi="http://www.w3.org/2001/XMLSchema-instance" xsi:noNamespaceSchemaLocation="http://sumo.dlr.de/xsd/tripinfo_file.xsd">
    <tripinfo id="1846_0" depart="18906.00" departLane="4209_0" departPos="5.10" departSpeed="0.00" departDelay="0.00" arrival="19125.00" arrivalLane="4318_0" arrivalPos="14.58" arrivalSpeed="7.92" duration="219.00" routeLength="2676.46" waitingTime="0.00" waitingCount="0" stopTime="0.00" timeLoss="22.35" rerouteNo="1" devices="vehroute_1846_0 tripinfo_1846_0 routing_1846_0" vType="car" speedFactor="1.06" vaporized=""/>
    <tripinfo id="181_0" depart="20366.00" departLane="1681_0" departPos="5.10" departSpeed="0.00" departDelay="0.00" arrival="20865.00" arrivalLane="4066_0" arrivalPos="7.17" arrivalSpeed="12.03" duration="499.00" routeLength="4245.19" waitingTime="0.00" waitingCount="0" stopTime="0.00" timeLoss="63.39" rerouteNo="1" devices="vehroute_181_0 tripinfo_181_0 routing_181_0" vType="car" speedFactor="0.94" vaporized=""/>
    <tripinfo id="34_0" depart="20981.00" departLane="1447_0" departPos="2.92" departSpeed="0.00" departDelay="0.00" arrival="21315.00" arrivalLane="8_0" arrivalPos="2.39" arrivalSpeed="2.61" duration="334.00" routeLength="1782.32" waitingTime="0.00" waitingCount="0" stopTime="0.00" timeLoss="54.89" rerouteNo="1" devices="vehroute_34_0 tripinfo_34_0 routing_34_0" vType="car" speedFactor="1.01" vaporized=""/>
    <tripinfo id="1289_0" depart="21645.00" departLane="4383_0" departPos="5.10" departSpeed="0.00" departDelay="0.00" arrival="21778.00" arrivalLane="1015_0" arrivalPos="18.93" arrivalSpeed="3.23" duration="133.00" routeLength="586.31" waitingTime="0.00" waitingCount="0" stopTime="0.00" timeLoss="21.03" rerouteNo="1" devices="vehroute_1289_0 tripinfo_1289_0 routing_1289_0" vType="car" speedFactor="1.08" vaporized=""/>
    <tripinfo id="192_0" depart="21928.00" departLane="2287_0" departPos="5.10" departSpeed="0.00" departDelay="0.00" arrival="22143.00" arrivalLane="1155_0" arrivalPos="0.20" arrivalSpeed="14.30" duration="215.00" routeLength="1667.68" waitingTime="0.00" waitingCount="0" stopTime="0.00" timeLoss="29.05" rerouteNo="1" devices="vehroute_192_0 tripinfo_192_0 routing_192_0" vType="car" speedFactor="1.03" vaporized=""/>
    <tripinfo id="77_0" depart="22342.00" departLane="1839_0" departPos="1.80" departSpeed="0.00" departDelay="0.00" arrival="22530.00" arrivalLane="1257_1" arrivalPos="39.45" arrivalSpeed="4.91" duration="188.00" routeLength="1466.73" waitingTime="0.00" waitingCount="0" stopTime="0.00" timeLoss="24.97" rerouteNo="1" devices="vehroute_77_0 tripinfo_77_0 routing_77_0" vType="car" speedFactor="0.89" vaporized=""/>
    <tripinfo id="1060_0" depart="22373.00" departLane="3837_0" departPos="1.75" departSpeed="0.00" departDelay="0.00" arrival="22609.00" arrivalLane="4352_0" arrivalPos="14.92" arrivalSpeed="2.97" duration="236.00" routeLength="1128.15" waitingTime="0.00" waitingCount="0" stopTime="0.00" timeLoss="35.20" rerouteNo="1" devices="vehroute_1060_0 tripinfo_1060_0 routing_1060_0" vType="car" speedFactor="0.94" vaporized=""/>
    <tripinfo id="2474_0" depart="21978.00" departLane="1765_0" departPos="0.14" departSpeed="0.00" departDelay="0.00" arrival="22655.00" arrivalLane="1825_0" arrivalPos="458.62" arrivalSpeed="2.73" duration="677.00" routeLength="2692.93" waitingTime="0.00" waitingCount="0" stopTime="0.00" timeLoss="103.74" rerouteNo="1" devices="vehroute_2474_0 tripinfo_2474_0 routing_2474_0" vType="car" speedFactor="0.83" vaporized=""/>
    <tripinfo id="1099_0" depart="22451.00" departLane="1505_0" departPos="3.81" departSpeed="0.00" departDelay="0.00" arrival="22695.00" arrivalLane="91_0" arrivalPos="9.30" arrivalSpeed="1.54" duration="244.00" routeLength="1694.91" waitingTime="0.00" waitingCount="0" stopTime="0.00" timeLoss="34.60" rerouteNo="1" devices="vehroute_1099_0 tripinfo_1099_0 routing_1099_0" vType="car" speedFactor="0.86" vaporized=""/>
    <tripinfo id="1181_0" depart="22461.00" departLane="1404_0" departPos="3.86" departSpeed="0.00" departDelay="0.00" arrival="22708.00" arrivalLane="667_0" arrivalPos="5.57" arrivalSpeed="13.31" duration="247.00" routeLength="3212.43" waitingTime="0.00" waitingCount="0" stopTime="0.00" timeLoss="29.43" rerouteNo="1" devices="vehroute_1181_0 tripinfo_1181_0 routing_1181_0" vType="car" speedFactor="1.09" vaporized=""/>
    <tripinfo id="1817_0" depart="22876.00" departLane="3895_0" departPos="5.10" departSpeed="0.00" departDelay="0.00" arrival="22943.00" arrivalLane="1501_0" arrivalPos="32.79" arrivalSpeed="2.75" duration="67.00" routeLength="296.04" waitingTime="0.00" waitingCount="0" stopTime="0.00" timeLoss="17.78" rerouteNo="1" devices="vehroute_1817_0 tripinfo_1817_0 routing_1817_0" vType="car" speedFactor="0.99" vaporized=""/>
    <tripinfo id="1367_0" depart="22709.00" departLane="4355_0" departPos="5.10" departSpeed="0.00" departDelay="0.00" arrival="22956.00" arrivalLane="4480_0" arrivalPos="2.59" arrivalSpeed="3.10" duration="247.00" routeLength="1899.15" waitingTime="0.00" waitingCount="0" stopTime="0.00" timeLoss="30.25" rerouteNo="1" devices="vehroute_1367_0 tripinfo_1367_0 routing_1367_0" vType="car" speedFactor="1.12" vaporized=""/>
    <tripinfo id="856_0" depart="22668.00" departLane="1671_0" departPos="5.10" departSpeed="0.00" departDelay="0.00" arrival="22986.00" arrivalLane="4172_0" arrivalPos="5.06" arrivalSpeed="6.54" duration="318.00" routeLength="2762.15" waitingTime="0.00" waitingCount="0" stopTime="0.00" timeLoss="44.80" rerouteNo="1" devices="vehroute_856_0 tripinfo_856_0 routing_856_0" vType="car" speedFactor="1.03" vaporized=""/>
    <tripinfo id="1818_0" depart="22937.00" departLane="4029_0" departPos="5.10" departSpeed="0.00" departDelay="0.00" arrival="23160.00" arrivalLane="3705_0" arrivalPos="0.20" arrivalSpeed="2.65" duration="223.00" routeLength="1169.50" waitingTime="0.00" waitingCount="0" stopTime="0.00" timeLoss="31.73" rerouteNo="1" devices="vehroute_1818_0 tripinfo_1818_0 routing_1818_0" vType="car" speedFactor="0.93" vaporized=""/>
    <tripinfo id="2270_0" depart="22305.00" departLane="4665_0" departPos="5.10" departSpeed="0.00" departDelay="0.00" arrival="23239.00" arrivalLane="5083_0" arrivalPos="18.03" arrivalSpeed="4.07" duration="934.00" routeLength="4179.76" waitingTime="0.00" waitingCount="0" stopTime="0.00" timeLoss="132.71" rerouteNo="1" devices="vehroute_2270_0 tripinfo_2270_0 routing_2270_0" vType="car" speedFactor="1.05" vaporized=""/>
    <tripinfo id="1774_0" depart="23281.00" departLane="4310_0" departPos="5.10" departSpeed="0.00" departDelay="0.00" arrival="23365.00" arrivalLane="315_0" arrivalPos="1.23" arrivalSpeed="2.56" duration="84.00" routeLength="613.88" waitingTime="0.00" waitingCount="0" stopTime="0.00" timeLoss="12.17" rerouteNo="1" devices="vehroute_1774_0 tripinfo_1774_0 routing_1774_0" vType="car" speedFactor="0.94" vaporized=""/>
    <tripinfo id="2436_0" depart="23179.00" departLane="251_0" departPos="0.20" departSpeed="0.00" departDelay="0.00" arrival="23462.00" arrivalLane="3136_0" arrivalPos="5.41" arrivalSpeed="3.12" duration="283.00" routeLength="2041.53" waitingTime="0.00" waitingCount="0" stopTime="0.00" timeLoss="34.93" rerouteNo="1" devices="vehroute_2436_0 tripinfo_2436_0 routing_2436_0" vType="car" speedFactor="0.88" vaporized=""/>
    <tripinfo id="1093_0" depart="22680.00" departLane="2333_0" departPos="5.10" departSpeed="0.00" departDelay="0.00" arrival="23521.00" arrivalLane="3548_0" arrivalPos="4.41" arrivalSpeed="2.62" duration="841.00" routeLength="3618.20" waitingTime="0.00" waitingCount="0" stopTime="0.00" timeLoss="132.72" rerouteNo="1" devices="vehroute_1093_0 tripinfo_1093_0 routing_1093_0" vType="car" speedFactor="1.05" vaporized=""/>
    <tripinfo id="682_0" depart="23462.00" departLane="3431_0" departPos="5.10" departSpeed="0.00" departDelay="0.00" arrival="23569.00" arrivalLane="2092_0" arrivalPos="0.20" arrivalSpeed="10.27" duration="107.00" routeLength="1284.33" waitingTime="0.00" waitingCount="0" stopTime="0.00" timeLoss="12.20" rerouteNo="1" devices="vehroute_682_0 tripinfo_682_0 routing_682_0" vType="car" speedFactor="1.02" vaporized=""/>
    <tripinfo id="42_0" depart="23422.00" departLane="4609_0" departPos="5.10" departSpeed="0.00" departDelay="0.00" arrival="23665.00" arrivalLane="4770_0" arrivalPos="62.37" arrivalSpeed="3.92" duration="243.00" routeLength="2334.60" waitingTime="0.00" waitingCount="0" stopTime="0.00" timeLoss="24.97" rerouteNo="1" devices="vehroute_42_0 tripinfo_42_0 routing_42_0" vType="car" speedFactor="1.16" vaporized=""/>
    <tripinfo id="1337_0" depart="23593.00" departLane="1087_0" departPos="5.10" departSpeed="0.00" departDelay="0.00" arrival="23767.00" arrivalLane="719_0" arrivalPos="4.87" arrivalSpeed="2.56" duration="174.00" routeLength="1407.35" waitingTime="0.00" waitingCount="0" stopTime="0.00" timeLoss="18.49" rerouteNo="1" devices="vehroute_1337_0 tripinfo_1337_0 routing_1337_0" vType="car" speedFactor="0.97" vaporized=""/>
    <tripinfo id="1823_0" depart="23276.00" departLane="1148_0" departPos="0.24" departSpeed="0.00" departDelay="0.00" arrival="23798.00" arrivalLane="1485_0" arrivalPos="3.27" arrivalSpeed="1.68" duration="522.00" routeLength="3679.03" waitingTime="0.00" waitingCount="0" stopTime="0.00" timeLoss="74.69" rerouteNo="1" devices="vehroute_1823_0 tripinfo_1823_0 routing_1823_0" vType="car" speedFactor="0.94" vaporized=""/>
    <tripinfo id="2134_0" depart="23611.00" departLane="1516_0" departPos="5.10" departSpeed="0.00" departDelay="0.00" arrival="23898.00" arrivalLane="3685_0" arrivalPos="45.26" arrivalSpeed="12.28" duration="287.00" routeLength="2245.89" waitingTime="0.00" waitingCount="0" stopTime="0.00" timeLoss="38.64" rerouteNo="1" devices="vehroute_2134_0 tripinfo_2134_0 routing_2134_0" vType="car" speedFactor="0.89" vaporized=""/>
    <tripinfo id="2423_0" depart="23851.00" departLane="1430_0" departPos="5.10" departSpeed="0.00" departDelay="0.00" arrival="24035.00" arrivalLane="3174_0" arrivalPos="70.09" arrivalSpeed="2.74" duration="184.00" routeLength="1039.69" waitingTime="0.00" waitingCount="0" stopTime="0.00" timeLoss="30.67" rerouteNo="1" devices="vehroute_2423_0 tripinfo_2423_0 routing_2423_0" vType="car" speedFactor="0.83" vaporized=""/>
    <tripinfo id="82_0" depart="23865.00" departLane="873_0" departPos="2.09" departSpeed="0.00" departDelay="0.00" arrival="24072.00" arrivalLane="2925_0" arrivalPos="0.13" arrivalSpeed="10.99" duration="207.00" routeLength="2185.53" waitingTime="0.00" waitingCount="0" stopTime="0.00" timeLoss="20.16" rerouteNo="1" devices="vehroute_82_0 tripinfo_82_0 routing_82_0" vType="car" speedFactor="0.87" vaporized=""/>
    <tripinfo id="2279_0" depart="23951.00" departLane="2302_0" departPos="0.20" departSpeed="0.00" departDelay="0.00" arrival="24192.00" arrivalLane="1554_0" arrivalPos="12.51" arrivalSpeed="2.27" duration="241.00" routeLength="1362.83" waitingTime="0.00" waitingCount="0" stopTime="0.00" timeLoss="36.04" rerouteNo="1" devices="vehroute_2279_0 tripinfo_2279_0 routing_2279_0" vType="car" speedFactor="0.92" vaporized=""/>
    <tripinfo id="2048_0" depart="23549.00" departLane="2204_0" departPos="2.02" departSpeed="0.00" departDelay="0.00" arrival="24249.00" arrivalLane="4536_0" arrivalPos="8.94" arrivalSpeed="3.24" duration="700.00" routeLength="4793.51" waitingTime="0.00" waitingCount="0" stopTime="0.00" timeLoss="100.00" rerouteNo="1" devices="vehroute_2048_0 tripinfo_2048_0 routing_2048_0" vType="car" speedFactor="1.01" vaporized=""/>
    <tripinfo id="728_0" depart="23999.00" departLane="5118_0" departPos="5.10" departSpeed="0.00" departDelay="0.00" arrival="24341.00" arrivalLane="2882_0" arrivalPos="143.49" arrivalSpeed="3.71" duration="342.00" routeLength="2269.51" waitingTime="0.00" waitingCount="0" stopTime="0.00" timeLoss="41.38" rerouteNo="1" devices="vehroute_728_0 tripinfo_728_0 routing_728_0" vType="car" speedFactor="1.13" vaporized=""/>
    <tripinfo id="768_0" depart="24179.00" departLane="1433_0" departPos="5.10" departSpeed="0.00" departDelay="0.00" arrival="24359.00" arrivalLane="2724_0" arrivalPos="0.10" arrivalSpeed="3.63" duration="180.00" routeLength="1628.57" waitingTime="0.00" waitingCount="0" stopTime="0.00" timeLoss="23.47" rerouteNo="1" devices="vehroute_768_0 tripinfo_768_0 routing_768_0" vType="car" speedFactor="1.15" vaporized=""/>
    <tripinfo id="1923_0" depart="24220.00" departLane="2387_0" departPos="5.10" departSpeed="0.00" departDelay="0.00" arrival="24491.00" arrivalLane="1597_0" arrivalPos="43.49" arrivalSpeed="3.97" duration="271.00" routeLength="1022.61" waitingTime="0.00" waitingCount="0" stopTime="0.00" timeLoss="44.30" rerouteNo="1" devices="vehroute_1923_0 tripinfo_1923_0 routing_1923_0" vType="car" speedFactor="1.01" vaporized=""/>
    <tripinfo id="2178_0" depart="23994.00" departLane="2818_0" departPos="0.20" departSpeed="0.00" departDelay="0.00" arrival="24512.00" arrivalLane="2952_0" arrivalPos="7.73" arrivalSpeed="2.18" duration="518.00" routeLength="2380.85" waitingTime="0.00" waitingCount="0" stopTime="0.00" timeLoss="80.86" rerouteNo="1" devices="vehroute_2178_0 tripinfo_2178_0 routing_2178_0" vType="car" speedFactor="0.95" vaporized=""/>
    <tripinfo id="2183_0" depart="24066.00" departLane="2390_0" departPos="5.10" departSpeed="0.00" departDelay="0.00" arrival="24513.00" arrivalLane="1238_0" arrivalPos="14.86" arrivalSpeed="3.23" duration="447.00" routeLength="3279.36" waitingTime="0.00" waitingCount="0" stopTime="0.00" timeLoss="58.28" rerouteNo="1" devices="vehroute_2183_0 tripinfo_2183_0 routing_2183_0" vType="car" speedFactor="0.93" vaporized=""/>
    <tripinfo id="1433_0" depart="24290.00" departLane="3414_0" departPos="5.10" departSpeed="0.00" departDelay="0.00" arrival="24630.00" arrivalLane="4822_0" arrivalPos="3.17" arrivalSpeed="6.32" duration="340.00" routeLength="4232.06" waitingTime="0.00" waitingCount="0" stopTime="0.00" timeLoss="36.95" rerouteNo="1" devices="vehroute_1433_0 tripinfo_1433_0 routing_1433_0" vType="car" speedFactor="1.17" vaporized=""/>
    <tripinfo id="24_0" depart="24129.00" departLane="608_0" departPos="0.20" departSpeed="0.00" departDelay="0.00" arrival="24666.00" arrivalLane="1296_0" arrivalPos="12.08" arrivalSpeed="4.68" duration="537.00" routeLength="2316.30" waitingTime="0.00" waitingCount="0" stopTime="0.00" timeLoss="75.70" rerouteNo="1" devices="vehroute_24_0 tripinfo_24_0 routing_24_0" vType="car" speedFactor="1.18" vaporized=""/>
    <tripinfo id="920_0" depart="24314.00" departLane="1632_0" departPos="5.10" departSpeed="0.00" departDelay="0.00" arrival="24687.00" arrivalLane="4584_0" arrivalPos="112.42" arrivalSpeed="4.08" duration="373.00" routeLength="1915.10" waitingTime="0.00" waitingCount="0" stopTime="0.00" timeLoss="56.13" rerouteNo="1" devices="vehroute_920_0 tripinfo_920_0 routing_920_0" vType="car" speedFactor="0.99" vaporized=""/>
    <tripinfo id="1054_0" depart="24462.00" departLane="3267_0" departPos="0.20" departSpeed="0.00" departDelay="0.00" arrival="24716.00" arrivalLane="1178_0" arrivalPos="1.67" arrivalSpeed="3.30" duration="254.00" routeLength="1880.20" waitingTime="0.00" waitingCount="0" stopTime="0.00" timeLoss="27.95" rerouteNo="1" devices="vehroute_1054_0 tripinfo_1054_0 routing_1054_0" vType="car" speedFactor="0.97" vaporized=""/>
    <tripinfo id="1621_0" depart="24691.00" departLane="1052_0" departPos="5.10" departSpeed="0.00" departDelay="0.00" arrival="24884.00" arrivalLane="3296_0" arrivalPos="4.47" arrivalSpeed="8.24" duration="193.00" routeLength="1434.12" waitingTime="0.00" waitingCount="0" stopTime="0.00" timeLoss="32.43" rerouteNo="1" devices="vehroute_1621_0 tripinfo_1621_0 routing_1621_0" vType="car" speedFactor="1.18" vaporized=""/>
    <tripinfo id="1660_0" depart="24434.00" departLane="4505_0" departPos="5.10" departSpeed="0.00" departDelay="0.00" arrival="24946.00" arrivalLane="3026_0" arrivalPos="0.65" arrivalSpeed="3.94" duration="512.00" routeLength="3950.77" waitingTime="0.00" waitingCount="0" stopTime="0.00" timeLoss="55.37" rerouteNo="1" devices="vehroute_1660_0 tripinfo_1660_0 routing_1660_0" vType="car" speedFactor="1.02" vaporized=""/>
    <tripinfo id="64_0" depart="24722.00" departLane="948_0" departPos="5.10" departSpeed="0.00" departDelay="0.00" arrival="25018.00" arrivalLane="4115_0" arrivalPos="17.10" arrivalSpeed="11.93" duration="296.00" routeLength="1822.68" waitingTime="0.00" waitingCount="0" stopTime="0.00" timeLoss="45.02" rerouteNo="1" devices="vehroute_64_0 tripinfo_64_0 routing_64_0" vType="car" speedFactor="0.90" vaporized=""/>
    <tripinfo id="2242_0" depart="24703.00" departLane="2412_0" departPos="5.10" departSpeed="0.00" departDelay="0.00" arrival="25030.00" arrivalLane="4449_0" arrivalPos="30.64" arrivalSpeed="2.57" duration="327.00" routeLength="1541.56" waitingTime="0.00" waitingCount="0" stopTime="0.00" timeLoss="48.06" rerouteNo="1" devices="vehroute_2242_0 tripinfo_2242_0 routing_2242_0" vType="car" speedFactor="1.10" vaporized=""/>
    <tripinfo id="2143_0" depart="24766.00" departLane="3155_0" departPos="5.10" departSpeed="0.00" departDelay="0.00" arrival="25043.00" arrivalLane="3323_0" arrivalPos="2.47" arrivalSpeed="13.45" duration="277.00" routeLength="1946.39" waitingTime="0.00" waitingCount="0" stopTime="0.00" timeLoss="33.01" rerouteNo="1" devices="vehroute_2143_0 tripinfo_2143_0 routing_2143_0" vType="car" speedFactor="1.03" vaporized=""/>
    <tripinfo id="1209_0" depart="24998.00" departLane="949_0" departPos="5.10" departSpeed="0.00" departDelay="0.00" arrival="25182.00" arrivalLane="50_0" arrivalPos="72.06" arrivalSpeed="4.55" duration="184.00" routeLength="1139.41" waitingTime="0.00" waitingCount="0" stopTime="0.00" timeLoss="25.54" rerouteNo="1" devices="vehroute_1209_0 tripinfo_1209_0 routing_1209_0" vType="car" speedFactor="1.09" vaporized=""/>
    <tripinfo id="1591_0" depart="25135.00" departLane="2662_0" departPos="5.10" departSpeed="0.00" departDelay="0.00" arrival="25336.00" arrivalLane="853_0" arrivalPos="84.41" arrivalSpeed="3.25" duration="201.00" routeLength="1967.55" waitingTime="0.00" waitingCount="0" stopTime="0.00" timeLoss="25.49" rerouteNo="1" devices="vehroute_1591_0 tripinfo_1591_0 routing_1591_0" vType="car" speedFactor="1.09" vaporized=""/>
    <tripinfo id="442_0" depart="25258.00" departLane="1897_0" departPos="0.20" departSpeed="0.00" departDelay="0.00" arrival="25339.00" arrivalLane="1159_0" arrivalPos="2.90" arrivalSpeed="13.29" duration="81.00" routeLength="840.15" waitingTime="0.00" waitingCount="0" stopTime="0.00" timeLoss="17.27" rerouteNo="1" devices="vehroute_442_0 tripinfo_442_0 routing_442_0" vType="car" speedFactor="1.02" vaporized=""/>
    <tripinfo id="1867_0" depart="25149.00" departLane="1073_0" departPos="5.10" departSpeed="0.00" departDelay="0.00" arrival="25342.00" arrivalLane="2880_0" arrivalPos="152.71" arrivalSpeed="3.76" duration="193.00" routeLength="1138.13" waitingTime="0.00" waitingCount="0" stopTime="0.00" timeLoss="28.67" rerouteNo="1" devices="vehroute_1867_0 tripinfo_1867_0 routing_1867_0" vType="car" speedFactor="1.00" vaporized=""/>
    <tripinfo id="1471_0" depart="25067.00" departLane="3468_0" departPos="4.63" departSpeed="0.00" departDelay="0.00" arrival="25472.00" arrivalLane="729_0" arrivalPos="6.98" arrivalSpeed="13.65" duration="405.00" routeLength="3732.12" waitingTime="0.00" waitingCount="0" stopTime="0.00" timeLoss="53.58" rerouteNo="1" devices="vehroute_1471_0 tripinfo_1471_0 routing_1471_0" vType="car" speedFactor="1.04" vaporized=""/>
    <tripinfo id="878_0" depart="25463.00" departLane="3298_0" departPos="4.07" departSpeed="0.00" departDelay="0.00" arrival="25495.00" arrivalLane="2117_0" arrivalPos="0.20" arrivalSpeed="14.76" duration="32.00" routeLength="369.88" waitingTime="0.00" waitingCount="0" stopTime="0.00" timeLoss="6.84" rerouteNo="1" devices="vehroute_878_0 tripinfo_878_0 routing_878_0" vType="car" speedFactor="1.12" vaporized=""/>
    <tripinfo id="1584_0" depart="25392.00" departLane="1768_0" departPos="0.39" departSpeed="0.00" departDelay="0.00" arrival="25511.00" arrivalLane="869_0" arrivalPos="0.20" arrivalSpeed="12.26" duration="119.00" routeLength="1266.66" waitingTime="0.00" waitingCount="0" stopTime="0.00" timeLoss="13.33" rerouteNo="1" devices="vehroute_1584_0 tripinfo_1584_0 routing_1584_0" vType="car" speedFactor="0.97" vaporized=""/>
    <tripinfo id="1288_0" depart="25104.00" departLane="4505_0" departPos="5.10" departSpeed="0.00" departDelay="0.00" arrival="25537.00" arrivalLane="2729_0" arrivalPos="9.57" arrivalSpeed="3.46" duration="433.00" routeLength="3323.34" waitingTime="2.00" waitingCount="1" stopTime="0.00" timeLoss="72.68" rerouteNo="1" devices="vehroute_1288_0 tripinfo_1288_0 routing_1288_0" vType="car" speedFactor="1.04" vaporized=""/>
    <tripinfo id="924_0" depart="25165.00" departLane="1909_0" departPos="1.77" departSpeed="0.00" departDelay="0.00" arrival="25538.00" arrivalLane="4454_0" arrivalPos="14.82" arrivalSpeed="1.89" duration="373.00" routeLength="2804.81" waitingTime="0.00" waitingCount="0" stopTime="0.00" timeLoss="46.43" rerouteNo="1" devices="vehroute_924_0 tripinfo_924_0 routing_924_0" vType="car" speedFactor="0.90" vaporized=""/>
    <tripinfo id="641_0" depart="25457.00" departLane="507_0" departPos="3.23" departSpeed="0.00" departDelay="0.00" arrival="25549.00" arrivalLane="254_0" arrivalPos="59.25" arrivalSpeed="13.99" duration="92.00" routeLength="1094.86" waitingTime="0.00" waitingCount="0" stopTime="0.00" timeLoss="17.00" rerouteNo="1" devices="vehroute_641_0 tripinfo_641_0 routing_641_0" vType="car" speedFactor="1.08" vaporized=""/>
    <tripinfo id="1974_0" depart="25251.00" departLane="2030_0" departPos="5.10" departSpeed="0.00" departDelay="0.00" arrival="25550.00" arrivalLane="1514_0" arrivalPos="6.05" arrivalSpeed="3.02" duration="299.00" routeLength="2160.07" waitingTime="0.00" waitingCount="0" stopTime="0.00" timeLoss="66.89" rerouteNo="1" devices="vehroute_1974_0 tripinfo_1974_0 routing_1974_0" vType="car" speedFactor="1.17" vaporized=""/>
    <tripinfo id="2053_0" depart="25190.00" departLane="4752_0" departPos="5.10" departSpeed="0.00" departDelay="0.00" arrival="25624.00" arrivalLane="2334_0" arrivalPos="30.25" arrivalSpeed="3.29" duration="434.00" routeLength="1926.86" waitingTime="0.00" waitingCount="0" stopTime="0.00" timeLoss="65.54" rerouteNo="1" devices="vehroute_2053_0 tripinfo_2053_0 routing_2053_0" vType="car" speedFactor="0.85" vaporized=""/>
    <tripinfo id="1572_0" depart="25275.00" departLane="3337_0" departPos="2.23" departSpeed="0.00" departDelay="0.00" arrival="25636.00" arrivalLane="1996_0" arrivalPos="2.79" arrivalSpeed="2.00" duration="361.00" routeLength="2607.30" waitingTime="0.00" waitingCount="0" stopTime="0.00" timeLoss="49.38" rerouteNo="1" devices="vehroute_1572_0 tripinfo_1572_0 routing_1572_0" vType="car" speedFactor="1.10" vaporized=""/>
    <tripinfo id="12_0" depart="25331.00" departLane="5158_0" departPos="3.83" departSpeed="0.00" departDelay="0.00" arrival="25645.00" arrivalLane="2602_0" arrivalPos="34.53" arrivalSpeed="4.18" duration="314.00" routeLength="2557.69" waitingTime="0.00" waitingCount="0" stopTime="0.00" timeLoss="32.70" rerouteNo="1" devices="vehroute_12_0 tripinfo_12_0 routing_12_0" vType="car" speedFactor="1.00" vaporized=""/>
    <tripinfo id="2426_0" depart="25385.00" departLane="496_0" departPos="5.10" departSpeed="0.00" departDelay="0.00" arrival="25655.00" arrivalLane="3619_0" arrivalPos="48.41" arrivalSpeed="4.18" duration="270.00" routeLength="2282.81" waitingTime="0.00" waitingCount="0" stopTime="0.00" timeLoss="33.45" rerouteNo="1" devices="vehroute_2426_0 tripinfo_2426_0 routing_2426_0" vType="car" speedFactor="1.14" vaporized=""/>
    <tripinfo id="363_0" depart="25386.00" departLane="778_0" departPos="5.10" departSpeed="0.00" departDelay="0.00" arrival="25672.00" arrivalLane="524_0" arrivalPos="9.75" arrivalSpeed="1.66" duration="286.00" routeLength="966.71" waitingTime="0.00" waitingCount="0" stopTime="0.00" timeLoss="61.42" rerouteNo="1" devices="vehroute_363_0 tripinfo_363_0 routing_363_0" vType="car" speedFactor="1.02" vaporized=""/>
    <tripinfo id="1472_0" depart="25668.00" departLane="1141_0" departPos="4.21" departSpeed="0.00" departDelay="0.00" arrival="25705.00" arrivalLane="4117_0" arrivalPos="72.28" arrivalSpeed="14.52" duration="37.00" routeLength="454.02" waitingTime="0.00" waitingCount="0" stopTime="0.00" timeLoss="5.83" rerouteNo="1" devices="vehroute_1472_0 tripinfo_1472_0 routing_1472_0" vType="car" speedFactor="1.06" vaporized=""/>
    <tripinfo id="1916_0" depart="25503.00" departLane="4457_0" departPos="0.20" departSpeed="0.00" departDelay="0.00" arrival="25707.00" arrivalLane="4732_0" arrivalPos="41.54" arrivalSpeed="13.54" duration="204.00" routeLength="2497.45" waitingTime="0.00" waitingCount="0" stopTime="0.00" timeLoss="16.91" rerouteNo="1" devices="vehroute_1916_0 tripinfo_1916_0 routing_1916_0" vType="car" speedFactor="1.02" vaporized=""/>
    <tripinfo id="1150_0" depart="25687.00" departLane="1895_0" departPos="5.10" departSpeed="0.00" departDelay="0.00" arrival="25742.00" arrivalLane="1001_0" arrivalPos="6.12" arrivalSpeed="7.20" duration="55.00" routeLength="573.47" waitingTime="0.00" waitingCount="0" stopTime="0.00" timeLoss="10.52" rerouteNo="1" devices="vehroute_1150_0 tripinfo_1150_0 routing_1150_0" vType="car" speedFactor="0.98" vaporized=""/>
    <tripinfo id="1582_0" depart="25385.00" departLane="1986_0" departPos="5.10" departSpeed="0.00" departDelay="0.00" arrival="25775.00" arrivalLane="5094_0" arrivalPos="0.20" arrivalSpeed="2.81" duration="390.00" routeLength="2938.04" waitingTime="0.00" waitingCount="0" stopTime="0.00" timeLoss="43.58" rerouteNo="1" devices="vehroute_1582_0 tripinfo_1582_0 routing_1582_0" vType="car" speedFactor="0.90" vaporized=""/>
    <tripinfo id="790_0" depart="25616.00" departLane="4604_0" departPos="5.10" departSpeed="0.00" departDelay="0.00" arrival="25782.00" arrivalLane="1923_0" arrivalPos="1.53" arrivalSpeed="3.88" duration="166.00" routeLength="728.19" waitingTime="0.00" waitingCount="0" stopTime="0.00" timeLoss="27.17" rerouteNo="1" devices="vehroute_790_0 tripinfo_790_0 routing_790_0" vType="car" speedFactor="0.97" vaporized=""/>
    <tripinfo id="169_0" depart="25174.00" departLane="5043_0" departPos="5.10" departSpeed="0.00" departDelay="0.00" arrival="25789.00" arrivalLane="3981_0" arrivalPos="14.29" arrivalSpeed="1.71" duration="615.00" routeLength="4304.03" waitingTime="0.00" waitingCount="0" stopTime="0.00" timeLoss="83.81" rerouteNo="1" devices="vehroute_169_0 tripinfo_169_0 routing_169_0" vType="car" speedFactor="0.88" vaporized=""/>
    <tripinfo id="2388_0" depart="25600.00" departLane="1390_0" departPos="0.20" departSpeed="0.00" departDelay="0.00" arrival="25791.00" arrivalLane="2245_0" arrivalPos="2.17" arrivalSpeed="14.04" duration="191.00" routeLength="2182.38" waitingTime="0.00" waitingCount="0" stopTime="0.00" timeLoss="22.47" rerouteNo="1" devices="vehroute_2388_0 tripinfo_2388_0 routing_2388_0" vType="car" speedFactor="1.04" vaporized=""/>
    <tripinfo id="1300_0" depart="25686.00" departLane="3734_0" departPos="5.08" departSpeed="0.00" departDelay="0.00" arrival="25792.00" arrivalLane="1189_0" arrivalPos="40.31" arrivalSpeed="14.12" duration="106.00" routeLength="751.02" waitingTime="0.00" waitingCount="0" stopTime="0.00" timeLoss="21.05" rerouteNo="1" devices="vehroute_1300_0 tripinfo_1300_0 routing_1300_0" vType="car" speedFactor="1.03" vaporized=""/>
    <tripinfo id="1861_0" depart="25753.00" departLane="4182_0" departPos="5.10" departSpeed="0.00" departDelay="0.00" arrival="25827.00" arrivalLane="4191_0" arrivalPos="75.80" arrivalSpeed="3.46" duration="74.00" routeLength="257.82" waitingTime="0.00" waitingCount="0" stopTime="0.00" timeLoss="12.44" rerouteNo="1" devices="vehroute_1861_0 tripinfo_1861_0 routing_1861_0" vType="car" speedFactor="1.02" vaporized=""/>
    <tripinfo id="1196_0" depart="25562.00" departLane="3813_0" departPos="2.43" departSpeed="0.00" departDelay="0.00" arrival="25855.00" arrivalLane="3015_0" arrivalPos="0.69" arrivalSpeed="3.07" duration="293.00" routeLength="1637.92" waitingTime="0.00" waitingCount="0" stopTime="0.00" timeLoss="42.26" rerouteNo="1" devices="vehroute_1196_0 tripinfo_1196_0 routing_1196_0" vType="car" speedFactor="0.88" vaporized=""/>
    <tripinfo id="635_0" depart="25612.00" departLane="4391_0" departPos="5.10" departSpeed="0.00" departDelay="0.00" arrival="25857.00" arrivalLane="4376_0" arrivalPos="2.99" arrivalSpeed="2.42" duration="245.00" routeLength="1274.56" waitingTime="0.00" waitingCount="0" stopTime="0.00" timeLoss="34.60" rerouteNo="1" devices="vehroute_635_0 tripinfo_635_0 routing_635_0" vType="car" speedFactor="1.02" vaporized=""/>