<?xml version="1.0" encoding="UTF-8"?>

<!-- generated on 2023-02-23 19:17:20 by Eclipse SUMO sumo Version 1.16.0
<configuration xmlns:xsi="http://www.w3.org/2001/XMLSchema-instance" xsi:noNamespaceSchemaLocation="http://sumo.dlr.de/xsd/sumoConfiguration.xsd">

    <input>
        <net-file value="5k/MASA.net.xml"/>
        <route-files value="5k/plans.rou.xml"/>
        <additional-files value="5k/MASA.add.xml"/>
    </input>

    <output>
        <summary-output value="5k/../output/5k/summary.xml"/>
        <tripinfo-output value="5k/../output/5k/tripinfos.xml"/>
        <vehroute-output value="5k/../output/5k/vehroute.xml"/>
        <statistic-output value="5k/../output/5k/stats.xml"/>
    </output>

    <time>
        <begin value="0"/>
        <end value="86400"/>
        <step-length value="1"/>
    </time>

</configuration>
-->

<routes xmlns:xsi="http://www.w3.org/2001/XMLSchema-instance" xsi:noNamespaceSchemaLocation="http://sumo.dlr.de/xsd/routes_file.xsd">
    <vehicle id="1846_0" type="car" depart="18906.00" arrival="19125.00">
        <route edges="4209 4211 4212 4210 4208 345 346 347 348 349 350 2244 2245 2246 2247 2248 2249 4306 4307 4308 5051 5052 5053 5048 5049 5050 4301 4302 4303 2922 2923 2924 2925 394 395 396 397 398 221 222 1882 1883 1884 2155 2174 3652 3688 3686 3684 503 501 499 497 495 493 3638 3636 3629 3630 3631 1801 2242 2243 1149 1151 1153 1155 920 921 2084 3326 3324 3322 3320 3318 3316 3314 3312 1848 1846 1844 1842 1840 1838 273 271 269 267 265 263 261 259 257 255 253 251 249 275 2580 2578 461 459 286 284 481 479 477 475 473 471 469 467 1388 465 463 279 277 307 297 302 3895 3893 3891 3889 3887 3885 791 792 793 794 795 796 797 798 3669 3671 3673 3675 3677 3679 3681 749 751 753 755 757 759 761 4385 4318"/>
    </vehicle>

    <vehicle id="181_0" type="car" depart="20366.00" arrival="20865.00">
        <route edges="1681 1682 1680 1678 1676 1624 1622 1620 3682 3680 3678 3676 3674 3672 3670 855 856 857 858 859 860 861 3880 3884 3886 3888 3890 3892 3894 301 296 306 276 278 462 464 1387 466 468 470 472 474 476 478 480 283 285 458 460 2577 2579 274 248 250 252 254 256 258 260 262 264 266 268 270 272 1837 1839 1841 1843 1845 1847 2082 4716 1458 1456 1454 1452 1450 4705 4706 4707 1148 2089 2090 2091 2092 1801 2114 2115 2116 2117 1132 1689 1690 1691 1692 1693 1869 1394 1395 3265 4147 4148 4149 4150 4151 4206 4204 4202 4200 3942 3468 3466 3464 3462 3460 3458 603 604 605 606 607 3754 3897 3898 3899 3900 887 888 891 892 893 3252 3253 3254 3255 3256 3257 4063 4064 4065 4066"/>
    </vehicle>

    <vehicle id="34_0" type="car" depart="20981.00" arrival="21315.00">
        <route edges="1447 1448 1462 3943 3944 3979 3980 1028 1029 1073 1074 1075 1076 1077 1078 1079 1080 1081 1082 1083 191 189 830 828 826 824 822 1446 1444 718 716 714 712 710 708 706 704 702 935 933 931 929 1460 1829 3361 3362 3363 3364 3365 3366 3367 3368 3369 3370 3371 3966 2877 2879 2881 233 14 12 10 8"/>
    </vehicle>

    <vehicle id="1289_0" type="car" depart="21645.00" arrival="21778.00">
        <route edges="4383 4384 2733 2731 2729 2727 2725 2723 2721 2719 2717 2715 2713 2711 2709 2707 2705 2918 2919 2920 2921 716 714 712 710 708 706 704 702 1006 1008 1010 1012 1014 1015"/>
    </vehicle>

    <vehicle id="192_0" type="car" depart="21928.00" arrival="22143.00">
        <route edges="2287 2285 3764 3762 3760 3789 3790 531 533 535 537 363 365 367 2577 2579 274 248 250 252 254 256 258 260 262 264 266 268 270 272 1837 1839 1841 1843 1845 1847 2082 4716 1458 1456 1454 1452 1450 4705 4706 4707 1148 2089 2090 2091 2092 1801 2242 2243 1149 1151 1153 1155"/>
    </vehicle>

    <vehicle id="77_0" type="car" depart="22342.00" arrival="22530.00">
        <route edges="1839 1841 1843 1845 1847 2082 4716 1458 1456 1454 1452 1450 4705 4706 4707 1148 2089 2090 2091 2092 1801 2114 2115 2116 2117 1132 1133 1134 1135 1136 1137 1138 541 542 543 544 545 4111 4112 4113 4114 4115 4116 4117 4118 4119 4120 1129 1130 1131 1090 1091 1092 1093 1094 1095 1096 1097 1098 1099 1100 4156 4157 4158 4159 4162 3396 3398 1278 1276 1274 1272 1270 1268 1266 1264 1262 1260 1258 1257"/>
    </vehicle>

    <vehicle id="1060_0" type="car" depart="22373.00" arrival="22609.00">
        <route edges="3837 3835 3833 3831 3829 3827 3825 3823 3821 3819 3848 3849 296 306 276 278 462 464 1387 466 468 470 472 474 476 478 480 283 285 2061 2062 2063 2064 359 361 946 948 950 952 954 956 4340 4342 4344 4346 4348 4350 4352"/>
    </vehicle>

    <vehicle id="2474_0" type="car" depart="21978.00" arrival="22655.00">
        <route edges="1765 1767 1769 1771 1772 1770 1768 1766 2072 2070 2068 2066 251 249 275 2580 2578 1034 1036 1038 359 361 314 316 318 320 322 324 326 328 330 332 1243 1245 1247 1249 1251 1827 1220 1218 1216 1214 1212 1210 1208 1206 1204 1202 1200 1198 1196 1194 1192 1811 1813 1815 1817 1819 1821 1823 1825"/>
    </vehicle>

    <vehicle id="1099_0" type="car" depart="22451.00" arrival="22695.00">
        <route edges="1505 1507 5139 5137 5135 5133 5131 3848 3849 296 306 276 278 462 464 1387 466 468 470 472 474 476 478 480 283 285 458 460 2577 2579 274 248 250 252 254 256 258 260 262 264 266 268 270 272 1837 1839 1841 1843 1845 1847 2082 4716 4718 4720 4722 4724 85 83 81 91"/>
    </vehicle>

    <vehicle id="1181_0" type="car" depart="22461.00" arrival="22708.00">
        <route edges="1404 1405 1406 1407 1408 1409 1410 287 288 289 290 291 292 280 281 282 1926 1927 1928 1804 1805 1806 3718 3719 3720 3721 3722 3723 345 346 347 348 349 350 2244 2245 2246 2247 2248 2249 4306 4307 4308 5051 5052 5053 5048 5049 5050 4301 4302 4303 2922 2923 2924 2925 394 395 396 397 398 221 222 1882 1883 1884 2155 2174 3652 3688 3686 3684 503 501 499 497 495 493 3638 3636 3629 3630 3631 1801 2242 2243 1149 1151 1153 1155 920 921 2084 3326 3324 3322 3320 3318 3316 3314 3312 1848 1846 1844 1842 1840 1838 273 271 269 267 265 263 261 259 257 255 253 251 249 275 2580 2578 461 459 286 284 481 479 477 475 473 471 469 467 1388 465 463 279 277 307 297 302 3895 3893 3891 3889 3887 3885 3881 816 814 3251 197 648 649 650 651 652 653 654 655 656 657 658 668 666 664 662 660 659 661 663 665 667"/>
    </vehicle>

    <vehicle id="1817_0" type="car" depart="22876.00" arrival="22943.00">
        <route edges="3895 3893 3891 3889 3887 3886 3888 3890 3892 3894 3813 70 71 72 73 74 75 5132 5134 5136 5138 5140 5142 1501"/>
    </vehicle>

    <vehicle id="1367_0" type="car" depart="22709.00" arrival="22956.00">
        <route edges="4355 4353 4351 4349 4347 4345 4343 4341 957 955 953 951 949 947 362 360 1039 1037 1035 461 459 286 284 481 479 477 475 473 471 469 467 1388 465 463 279 277 307 297 302 3895 3893 3891 3889 3887 3885 3881 816 814 3251 197 155 193 449 191 189 830 828 826 824 822 1446 1444 718 716 714 712 4486 4484 4482 4480"/>
    </vehicle>

    <vehicle id="856_0" type="car" depart="22668.00" arrival="22986.00">
        <route edges="1671 1673 1674 1672 1670 1632 1630 1628 1626 1624 1622 1620 3682 3680 3678 3676 3674 3672 3670 855 856 857 858 859 860 861 3880 3884 3886 3888 3890 3892 3894 301 296 306 276 278 462 464 1387 466 468 470 472 474 476 478 480 283 285 458 460 2577 2579 274 248 250 252 254 256 258 260 262 264 266 268 270 272 1837 1839 1841 1843 1845 1847 2082 4716 1458 1456 1454 3091 3092 3093 3094 3095 3096 3097 492 494 496 498 500 502 3683 3685 3687 3651 2173 2154 1894 1895 1896 241 242 243 4311 4312 4313 4306 4307 4308 3258 3259 3260 1974 1975 3993 3994 3995 3996 433 2169 4172"/>
    </vehicle>

    <vehicle id="1818_0" type="car" depart="22937.00" arrival="23160.00">
        <route edges="4029 4027 602 600 2172 3470 3499 3500 3508 3509 3510 3511 3512 4298 4299 4300 4990 4991 3515 3516 4171 4169 4167 4165 4154 4155 1165 1166 1167 1168 1169 1939 1940 1941 1090 1091 1092 4196 4197 4198 3292 3290 3288 3286 4820 4822 4824 4826 4828 4830 4832 4834 4836 4838 4788 4790 4792 4863 4861 3277 3278 3279 3280 3281 3282 3283 3284 3266 562 560 558 556 554 552 550 3705"/>
    </vehicle>

    <vehicle id="2270_0" type="car" depart="22305.00" arrival="23239.00">
        <route edges="4665 4667 4669 4671 4673 4675 4677 4679 4681 4683 4685 4687 4689 4691 4692 4690 4688 4686 4684 4682 4680 4678 4676 4674 4672 4670 4668 4666 4664 4662 4660 4658 4656 4654 4652 4650 4648 4646 4644 4642 4640 4638 4636 4634 4632 4630 4628 4626 1027 1025 1023 1021 1019 1017 1015 1013 1011 1009 1007 701 703 705 707 709 711 713 715 717 1443 1445 821 823 825 827 829 188 190 448 192 154 196 3250 813 815 3880 3884 3886 3888 3890 3892 3894 301 296 306 276 278 462 464 1387 1478 2772 5081 5083"/>
    </vehicle>

    <vehicle id="1774_0" type="car" depart="23281.00" arrival="23365.00">
        <route edges="4310 3846 20 1392 1390 462 464 1387 466 468 470 472 474 476 478 480 283 285 2061 2062 2063 2064 359 361 314 315"/>
    </vehicle>

    <vehicle id="2436_0" type="car" depart="23179.00" arrival="23462.00">
        <route edges="251 249 275 2580 2578 461 459 286 284 481 479 477 475 473 471 469 467 1388 465 463 279 277 307 297 302 3895 3893 3891 3889 3887 3885 3881 816 814 3251 197 155 193 449 191 189 830 828 826 824 822 1446 1444 718 716 714 712 710 708 706 704 702 935 933 931 929 1460 1829 3361 3362 3363 3364 3365 3366 3367 3368 3369 3370 3371 3966 3964 3962 3174 3176 3178 3130 3132 3134 3136"/>
    </vehicle>

    <vehicle id="1093_0" type="car" depart="22680.00" arrival="23521.00">
        <route edges="2333 2334 2335 2336 2337 2338 2339 2340 2341 2342 2435 2433 2431 3303 3304 3305 3306 3307 3308 3309 3310 3668 3666 3664 3662 3660 3658 3656 3654 1654 1652 1650 1648 1646 1644 1642 1640 1638 1636 1634 1632 1630 1628 1626 1624 1622 1620 3682 3680 3678 3676 3674 3672 3670 855 856 857 858 859 860 861 816 814 3251 197 155 193 449 191 189 830 828 826 824 822 1446 1444 718 716 714 712 710 708 706 704 702 935 933 931 929 1460 1829 3361 3362 3363 3364 3365 3366 3367 3368 3369 3370 3371 3966 2877 2879 2881 2883 2885 2790 2791 2792 2793 2811 2812 2813 2814 2794 2795 2796 2849 303 304 305 2591 2592 2593 2594 2595 2596 2597 308 309 310 357 1352 1350 1348 1346 1344 1342 1340 1338 1336 1334 1332 1330 1328 1326 1324 1322 1320 4742 3547 3567 3568 3548"/>
    </vehicle>

    <vehicle id="682_0" type="car" depart="23462.00" arrival="23569.00">
        <route edges="3431 3433 472 474 476 478 480 283 285 458 460 2577 2579 274 248 250 252 254 256 258 260 262 264 266 268 270 272 1837 1839 1841 1843 1845 1847 2082 4716 1458 1456 1454 1452 1450 4705 4706 4707 1148 2089 2090 2091 2092"/>
    </vehicle>

    <vehicle id="42_0" type="car" depart="23422.00" arrival="23665.00">
        <route edges="4609 4611 4613 4615 4617 4619 4621 1881 1835 1836 1924 1925 928 930 932 934 701 703 705 707 709 711 713 715 717 1443 1445 821 823 825 827 829 188 190 448 192 154 196 3250 813 815 3880 3884 3886 3888 3890 3892 3894 301 296 306 276 278 462 464 1387 466 468 470 472 474 476 478 480 283 285 458 460 368 366 364 538 536 534 532 523 372 4773 4771 4770"/>
    </vehicle>

    <vehicle id="1337_0" type="car" depart="23593.00" arrival="23767.00">
        <route edges="1087 1085 985 983 981 996 998 3399 3397 4163 3632 3633 3634 1161 1162 1163 1164 1165 1166 1167 1168 1169 4160 4161 3901 3902 3903 3904 3905 3906 3896 546 547 548 1143 1144 1145 1146 1147 1148 2089 2090 2091 2092 1801 2114 2115 2116 2117 1132 1133 1134 1135 1136 1137 1138 541 542 543 544 545 4111 4112 4113 4114 4115 4116 4117 722 720 719"/>
    </vehicle>

    <vehicle id="1823_0" type="car" depart="23276.00" arrival="23798.00">
        <route edges="1148 2089 2090 2091 2092 1801 2242 2243 1149 1151 1153 1155 920 921 2084 3326 3324 3322 3320 3318 3316 3314 3312 1848 1846 1844 1842 1840 1838 273 271 269 267 265 263 261 259 257 255 253 251 249 275 2580 2578 461 459 286 284 481 479 477 475 473 471 469 467 1388 465 463 279 277 307 297 302 3895 3893 3891 3889 3887 3885 3881 816 814 3251 197 155 193 449 191 189 830 828 826 824 822 1446 1444 718 716 714 712 710 708 706 704 702 935 933 931 929 1460 1829 3361 3362 3363 3364 3365 3366 3367 3368 3369 3370 3371 3966 3964 3962 3960 3958 3956 3954 3952 3950 3948 3946 3546 3549 3550 3551 3552 3553 3554 4023 3975 3471 3472 3473 3981 4056 4058 1476 1485"/>
    </vehicle>

    <vehicle id="2134_0" type="car" depart="23611.00" arrival="23898.00">
        <route edges="1516 1514 1512 1636 1634 1632 1630 1628 1626 1624 1622 1620 3682 3680 3678 3676 3674 3672 3670 855 856 857 858 859 860 861 3880 3884 3886 3888 3890 3892 3894 301 296 306 276 278 462 464 1387 466 468 470 472 474 476 478 480 283 285 458 460 2577 2579 274 248 250 252 254 256 258 260 262 264 266 268 270 272 1837 1839 1841 1843 1845 1847 2082 4716 1458 1456 1454 3091 3092 3093 3094 3095 3096 3097 492 494 496 498 500 502 3683 3685"/>
    </vehicle>

    <vehicle id="2423_0" type="car" depart="23851.00" arrival="24035.00">
        <route edges="1430 1436 1434 1432 504 515 517 519 521 700 1881 3264 1916 1917 1918 1919 1920 1921 1922 3370 3371 3966 3964 3962 3174"/>
    </vehicle>

    <vehicle id="82_0" type="car" depart="23865.00" arrival="24072.00">
        <route edges="873 874 875 876 763 764 765 766 767 768 769 3884 3886 3888 3890 3892 3894 301 296 306 276 278 462 464 1387 466 468 470 472 474 476 478 480 283 285 458 460 2577 2579 274 248 250 252 254 256 258 260 262 264 266 268 270 272 1837 1839 1841 1843 1845 1847 2082 4716 1458 1456 1454 3091 3092 3093 3094 3095 3096 3097 492 494 496 498 500 502 3683 3685 3687 3651 2173 2154 1894 1895 1896 241 242 243 4311 4312 4313 4306 4307 4308 5051 5052 5053 5048 5049 5050 4301 4302 4303 2922 2923 2924 2925"/>
    </vehicle>

    <vehicle id="2279_0" type="car" depart="23951.00" arrival="24192.00">
        <route edges="2302 3790 531 533 535 537 363 365 367 461 459 286 284 481 479 477 475 473 471 469 467 1388 465 463 279 277 307 297 302 3895 3893 3891 3889 3887 3885 791 792 793 794 795 796 797 798 3669 3671 3673 3675 3677 3679 3681 1619 1621 1623 1625 1627 1629 1631 1633 1635 1637 1639 1641 1643 1645 1647 1649 1651 1653 3302 1558 1556 1554"/>
    </vehicle>

    <vehicle id="2048_0" type="car" depart="23549.00" arrival="24249.00">
        <route edges="2204 2202 2200 2198 2196 2194 2192 2190 2837 676 678 680 782 609 629 627 625 623 693 691 519 521 700 1881 1835 1836 1924 1925 928 930 932 934 701 703 705 707 709 711 713 715 717 1443 1445 821 823 825 827 829 188 190 448 192 154 196 3250 813 815 3880 3884 3886 3888 3890 3892 3894 301 296 306 276 278 462 464 1387 466 468 470 472 474 476 478 480 283 285 458 460 2577 2579 274 248 250 252 254 256 258 260 262 264 266 268 270 272 1837 1839 1841 1843 1845 1847 2082 4716 4718 4720 4722 4724 4726 4728 4730 4732 4734 4736 4738 244 3455 3517 3518 4990 4991 3515 3516 4171 4169 403 390 392 993 4521 4523 4525 4527 4529 4531 4533 4535 4537 4539 4540 4538 4536"/>
    </vehicle>

    <vehicle id="728_0" type="car" depart="23999.00" arrival="24341.00">
        <route edges="5118 5116 5114 5112 5110 5108 5106 5104 5102 5100 5098 5096 5094 5092 5090 5088 32 30 28 26 24 22 20 1392 1390 279 277 307 297 302 3895 3893 3891 3889 3887 3885 3881 816 814 3251 197 155 193 449 191 189 830 828 826 824 822 1446 1444 718 716 714 712 710 708 706 704 702 935 933 931 929 1460 1829 3361 3362 3363 3364 3365 3366 3367 3368 3369 3370 3371 3966 2877 2879 2881 2882"/>
    </vehicle>

    <vehicle id="768_0" type="car" depart="24179.00" arrival="24359.00">
        <route edges="1433 1435 1429 3411 3413 3415 3417 513 504 515 517 519 521 700 1881 1835 1836 1924 1925 928 930 932 934 701 703 705 707 709 711 713 715 717 2912 2913 2914 2915 2916 2917 2704 2706 2708 2710 2712 2714 2716 2718 2720 2722 2724"/>
    </vehicle>

    <vehicle id="1923_0" type="car" depart="24220.00" arrival="24491.00">
        <route edges="2387 2388 2414 2412 2410 2408 2398 2396 1608 1606 1604 1602 3885 791 792 793 794 795 796 797 798 3669 3671 3673 3675 3677 3679 3681 1619 1621 1623 1591 1593 1595 1597"/>
    </vehicle>

    <vehicle id="2178_0" type="car" depart="23994.00" arrival="24512.00">
        <route edges="2818 2819 2820 2821 2786 2787 2788 2789 2886 2884 2882 2880 2878 3965 3372 3355 3356 3357 3358 3359 3360 1923 1836 1924 1925 928 930 932 934 701 703 705 707 709 711 713 715 717 1443 1445 821 823 825 827 829 188 190 448 192 154 196 3250 813 815 3880 3884 1601 1603 1605 1607 1609 1611 1613 2475 2473 2471 2469 2463 2951 2952"/>
    </vehicle>

    <vehicle id="2183_0" type="car" depart="24066.00" arrival="24513.00">
        <route edges="2390 2389 2386 2410 2408 2398 2396 1608 1606 1604 1602 3886 3888 3890 3892 3894 301 296 306 276 278 462 464 1387 466 468 470 472 474 476 478 480 283 285 458 460 2577 2579 274 248 250 252 254 256 258 260 262 264 266 268 270 272 1837 1839 1841 1843 1845 1847 2082 4716 1458 1456 1454 1452 1450 4705 4706 4707 1148 2089 2090 2091 2092 1801 2114 2115 2116 2117 1132 1133 1134 1135 1136 1137 1138 541 542 543 544 545 4111 4112 4113 4114 4115 4116 4117 4118 4119 4120 1129 1130 1131 1090 1091 1092 1093 1094 1095 1096 1097 1098 1099 1100 4156 4157 4158 4159 4162 5158 5159 5160 5161 5162 980 982 984 1084 1086 1088 1242 1240 1238"/>
    </vehicle>

    <vehicle id="1433_0" type="car" depart="24290.00" arrival="24630.00">
        <route edges="3414 3412 1430 1436 1434 1432 504 515 517 519 521 700 1881 1835 1836 1924 1925 928 930 932 934 701 703 705 707 709 711 713 715 717 1443 1445 821 823 825 827 829 188 190 448 192 154 196 3250 813 815 3880 3884 3886 3888 3890 3892 3894 301 296 306 276 278 462 464 1387 466 468 470 472 474 476 478 480 283 285 458 460 2577 2579 274 248 250 252 254 256 258 260 262 264 266 268 270 272 1837 1839 1841 1843 1845 1847 2082 4716 1458 1456 1454 1452 1450 4705 4706 4707 1148 2089 2090 2091 2092 1801 2114 2115 2116 2117 1132 1133 1134 1135 1136 1137 1138 541 542 543 544 545 4111 4112 4113 4114 4115 4116 4117 4118 4119 4120 1129 1130 1131 1090 1091 1092 4196 4197 4198 3292 3290 3288 3286 4820 4822"/>
    </vehicle>

    <vehicle id="24_0" type="car" depart="24129.00" arrival="24666.00">
        <route edges="608 781 681 198 200 2885 2790 2791 2792 2793 2811 2812 2813 2814 2794 2795 2796 2849 303 304 305 2591 2592 2593 2594 2595 2596 2597 308 309 310 357 1352 1350 1348 1346 1344 1342 1340 1338 1336 1334 1332 1330 1328 1326 1324 1322 1320 1318 1316 1314 1312 1310 1308 1306 1304 1302 1300 1298 1296"/>
    </vehicle>

    <vehicle id="920_0" type="car" depart="24314.00" arrival="24687.00">
        <route edges="1632 1630 1628 1626 1624 1622 1620 3682 3680 3678 3676 3674 3672 3670 855 856 857 858 859 860 861 816 814 3251 197 155 193 449 191 189 830 828 826 824 822 1446 1444 718 716 714 712 710 708 706 704 702 935 933 931 929 1460 1829 3361 3362 3363 3364 3365 3366 3367 3368 3369 3370 3371 3966 2877 2879 2881 2883 2885 2790 2791 2792 2793 2806 2807 4584"/>
    </vehicle>

    <vehicle id="1054_0" type="car" depart="24462.00" arrival="24716.00">
        <route edges="3267 3268 3269 3270 3271 3272 3273 3274 3275 3276 4860 4862 4794 4796 4798 4800 4802 4804 4806 4808 4810 4812 4814 4816 4818 3285 3287 3289 3291 1279 1280 1098 1099 1100 1183 1184 1185 1186 1161 1162 1163 1164 1165 1166 1167 1168 1169 4160 4161 3901 3902 3903 3904 3905 3906 3896 546 547 548 1143 1144 1145 1146 1147 1148 2089 2090 2091 2092 1801 2114 2115 2116 2117 1132 1689 1690 1691 1692 1693 1694 1176 1177 1178"/>
    </vehicle>

    <vehicle id="1621_0" type="car" depart="24691.00" arrival="24884.00">
        <route edges="1052 1054 3907 3908 1055 1053 1051 1049 1047 2233 2235 2237 1155 1157 1159 1187 1189 1849 1851 3293 3295 3297 15 16 3298 3296"/>
    </vehicle>

    <vehicle id="1660_0" type="car" depart="24434.00" arrival="24946.00">
        <route edges="4505 4507 4509 4511 4541 4543 4545 4547 4549 4540 4538 4536 4534 4532 4530 4528 4526 4524 4522 992 393 391 404 4168 4170 3513 3514 4972 4973 4974 4975 4976 4977 194 195 3508 3509 3510 3511 3512 3497 3498 3456 245 4739 4737 4735 4733 4731 4729 4727 4725 4723 4721 4719 4717 2083 1848 1846 1844 1842 1840 1838 273 271 269 267 265 263 261 259 257 255 253 251 249 275 2580 2578 461 459 286 284 481 479 477 475 473 471 469 467 1388 465 463 279 277 307 297 302 3895 3893 3891 3889 3887 3885 3881 816 814 3251 197 155 193 449 191 189 830 828 826 824 822 1446 1444 718 716 714 712 710 708 706 704 702 935 933 931 929 1460 1829 3361 3362 3363 3364 3365 3366 3367 3368 3369 3370 3371 3966 2877 2879 3050 3048 3046 3044 3042 3040 3038 3036 3034 3032 3030 3028 3026"/>
    </vehicle>

    <vehicle id="64_0" type="car" depart="24722.00" arrival="25018.00">
        <route edges="948 950 951 949 947 362 360 1039 1037 1035 2577 2579 274 248 250 252 254 256 258 260 262 264 266 268 270 272 1837 1839 1841 1843 1845 1847 2082 4716 1458 1456 1454 1452 1450 4705 4706 4707 1148 2089 2090 2091 2092 1801 2114 2115 2116 2117 1132 1133 1134 1135 1136 1137 1138 541 542 543 544 545 4111 4112 4113 4114 4115"/>
    </vehicle>

    <vehicle id="2242_0" type="car" depart="24703.00" arrival="25030.00">
        <route edges="2412 2410 2408 2398 2396 1608 1606 1604 1602 3885 3881 816 814 3251 197 155 193 449 191 189 830 828 826 824 822 1446 1444 2912 2913 2914 2915 2916 2917 2704 2706 2708 2710 2712 2714 2716 2718 2720 2722 2724 2726 2728 2730 2732 2734 4376 4377 4378 4379 4380 4449"/>
    </vehicle>

    <vehicle id="2143_0" type="car" depart="24766.00" arrival="25043.00">
        <route edges="3155 2939 2941 2943 1122 1120 1118 1116 1114 1112 1110 1108 1089 1087 1085 985 983 981 996 998 3399 3397 4163 3632 3633 3634 1161 1162 1163 1164 1165 1166 1167 1168 1169 4160 4161 3901 3902 3903 3904 3905 3906 3896 546 547 548 1143 3639 3640 3641 1449 1451 1453 1455 1457 4717 2083 3311 3313 3315 3317 3319 3321 3323"/>
    </vehicle>

    <vehicle id="1209_0" type="car" depart="24998.00" arrival="25182.00">
        <route edges="949 947 362 360 1039 1037 1035 461 459 286 284 481 479 477 475 473 471 469 467 1388 465 463 279 277 307 297 302 3813 70 71 72 73 74 75 5132 5134 5136 5138 5140 5142 5144 5146 5148 5150 5152 50"/>
    </vehicle>

    <vehicle id="1591_0" type="car" depart="25135.00" arrival="25336.00">
        <route edges="2662 2664 3762 3760 3789 3790 531 533 535 537 363 365 367 2577 2579 274 248 250 252 254 256 258 260 262 264 266 268 270 272 1837 1839 1841 1843 1845 1847 2082 4716 1458 1456 1454 1452 1450 4705 4706 4707 1148 2089 2090 2091 2092 1801 2114 2115 2116 2117 1132 1133 1134 1135 1136 1137 1138 541 542 543 544 545 4111 4112 4113 4114 4115 4116 4117 4118 4119 4120 1129 1130 1131 1090 1091 1092 1093 1094 1095 1096 1097 1098 1099 1100 4156 4157 847 849 851 853"/>
    </vehicle>

    <vehicle id="442_0" type="car" depart="25258.00" arrival="25339.00">
        <route edges="1897 1898 1899 1900 1901 1902 1903 1904 1905 1906 1907 1871 1873 1875 1877 1965 1963 1961 1855 1856 1857 1858 1859 1860 1861 1862 394 395 396 397 398 221 222 1882 1883 1884 2155 2174 3652 3688 3686 3684 503 501 499 497 495 493 3638 3636 3629 3630 3631 1801 2242 2243 1149 1151 1153 1155 1157 1159"/>
    </vehicle>

    <vehicle id="1867_0" type="car" depart="25149.00" arrival="25342.00">
        <route edges="1073 1074 1075 1076 1077 1078 1079 1080 1081 1082 1083 191 189 830 828 826 824 822 1446 1444 718 716 714 712 710 708 706 704 702 935 933 931 929 1460 1829 3361 3362 3363 3364 3365 3366 3367 3368 3369 3370 3371 3966 2877 2879 2880"/>
    </vehicle>

    <vehicle id="1471_0" type="car" depart="25067.00" arrival="25472.00">
        <route edges="3468 3466 3464 3462 3460 3458 603 604 605 606 607 3754 3897 3898 3899 3900 887 888 891 892 893 3252 3253 3254 3255 3256 3257 4063 4064 4065 4066 4067 4068 4069 4070 659 661 663 665 667 897 898 899 900 901 902 903 197 155 193 449 191 189 830 828 826 824 822 1446 1444 718 716 714 712 710 708 706 704 702 935 933 931 929 1460 1829 3361 3362 3363 3364 3365 3366 3367 3368 3369 3370 3371 3966 3964 3962 3960 3958 3956 3954 3952 3950 3948 3946 3546 3549 3550 3551 3552 3553 3554 4023 3975 3976 3977 3978 3979 3980 1028 1029 1040 1041 2630 2631 723 724 725 726 727 728 729"/>
    </vehicle>

    <vehicle id="878_0" type="car" depart="25463.00" arrival="25495.00">
        <route edges="3298 3296 3294 1852 1850 1190 1188 1160 1158 1156 1154 1152 1150 1000 1001 1002 1003 1132 1133 1134 1135 1136 1137 1138 1139 1140 1141 1142 1143 1144 1145 1146 1147 1148 2089 2090 2091 2092 1801 2114 2115 2116 2117"/>
    </vehicle>

    <vehicle id="1584_0" type="car" depart="25392.00" arrival="25511.00">
        <route edges="1768 1766 2072 2070 2068 2066 251 249 275 2580 2578 461 459 286 284 481 479 477 475 473 471 469 467 1388 465 463 279 277 307 297 302 3895 3893 3891 3889 3887 3885 3881 816 814 3251 197 155 193 817 818 819 820 812 862 863 864 865 866 867 868 869"/>
    </vehicle>

    <vehicle id="1288_0" type="car" depart="25104.00" arrival="25537.00">
        <route edges="4505 4507 4509 4511 4541 4543 4545 4547 4549 4540 4538 4536 4534 4532 4530 4528 4526 4524 4522 992 393 391 404 4168 4170 3513 3514 4972 4973 4974 4975 4976 4977 194 195 3508 3509 3510 3511 3512 3497 3498 3456 245 4739 4737 4735 4733 4731 4729 4727 4725 4723 4721 4719 4717 2083 1848 1846 1844 1842 1840 1838 273 271 269 267 265 263 261 259 257 255 253 251 249 275 2580 2578 461 459 286 284 481 479 477 475 473 471 469 467 1388 465 463 279 277 307 297 302 3895 3893 3891 3889 3887 3885 3881 816 814 3251 197 155 193 449 191 189 830 828 826 824 822 1446 1444 2912 2913 2914 2915 2916 2917 2704 2706 2708 2710 2712 2714 2716 2718 2720 2722 2724 2726 2728 2729"/>
    </vehicle>

    <vehicle id="924_0" type="car" depart="25165.00" arrival="25538.00">
        <route edges="1909 377 375 3272 3273 3274 3275 3276 3277 3278 3279 3280 3281 3282 3283 3284 3266 562 560 558 556 554 552 550 3705 3707 3709 3711 3713 3715 3942 3468 3466 3464 3462 3460 3458 603 604 605 606 607 3754 3897 3898 3899 3900 887 888 891 892 893 3252 3253 3254 3255 3256 3257 4063 4064 4065 4066 4067 4068 4069 4070 659 661 663 665 667 897 898 899 900 901 902 903 3250 813 815 3880 3884 3886 3888 3890 3892 3894 301 296 306 276 278 1389 1391 19 21 23 25 27 29 31 5087 4453 4454"/>
    </vehicle>

    <vehicle id="641_0" type="car" depart="25457.00" arrival="25549.00">
        <route edges="507 508 1103 1104 1105 1106 1137 1138 1139 1140 1141 1142 1143 3639 3640 3641 1449 1451 1453 1455 1457 4717 2083 1848 1846 1844 1842 1840 1838 273 271 269 267 265 263 261 259 257 255 253 252 254"/>
    </vehicle>

    <vehicle id="1974_0" type="car" depart="25251.00" arrival="25550.00">
        <route edges="2030 2028 2026 2024 2022 921 2084 3326 3324 3322 3320 3318 3316 3314 3312 1848 1846 1844 1842 1840 1838 273 271 269 267 265 263 261 259 257 255 253 251 249 275 2580 2578 461 459 286 284 481 479 477 475 473 471 469 467 1388 465 463 279 277 307 297 302 3895 3893 3891 3889 3887 3885 791 792 793 794 795 796 797 798 3669 3671 3673 3675 3677 3679 3681 1619 1621 1623 1625 1627 1629 1631 1633 1635 1511 1513 1515 1517 1519 1520 1518 1516 1514"/>
    </vehicle>

    <vehicle id="2053_0" type="car" depart="25190.00" arrival="25624.00">
        <route edges="4752 4764 2690 2650 2652 2654 2656 2658 2660 2662 2664 3762 3760 3789 3790 531 533 535 537 363 365 367 461 459 286 284 481 479 477 475 473 471 469 467 1388 465 463 279 277 307 297 302 3895 3893 3891 3889 3887 3885 791 792 793 794 795 796 797 798 3669 3671 3673 3675 3677 3679 3681 1619 1621 1623 1625 1627 1629 1631 1633 1635 1637 1639 1641 1643 1645 1647 1649 1651 1653 3653 3655 3657 3659 3661 3663 3665 3667 2421 2422 2423 2424 2425 2426 2427 2428 2429 2430 2432 2434 2333 2334"/>
    </vehicle>

    <vehicle id="1572_0" type="car" depart="25275.00" arrival="25636.00">
        <route edges="3337 3339 3341 3343 3345 3347 3349 3351 3353 4541 4543 4545 4547 4549 4540 4538 4536 4534 4532 4530 4528 4526 4524 4522 992 393 391 404 4168 4170 3513 3514 4972 4973 4974 4975 4976 4977 194 195 3508 3509 3510 3511 3512 3497 3498 3456 245 4739 4737 4735 4733 4731 4729 4727 4725 4723 4721 4719 1458 1456 1454 3091 3092 3093 3094 3095 3096 3097 492 494 496 498 500 502 3683 3685 3687 3651 2173 2170 2164 2165 2166 2167 2175 2176 2177 2178 2179 2180 2181 2182 1936 1937 5129 351 352 353 354 355 356 399 400 401 402 405 406 407 408 287 288 289 1221 1987 1988 1989 1990 2100 2098 2096 2094 1991 1993 1995 1997 1999 2001 2003 2005 2007 2009 2011 2012 2010 2008 2006 2004 2002 2000 1998 1996"/>
    </vehicle>

    <vehicle id="12_0" type="car" depart="25331.00" arrival="25645.00">
        <route edges="5158 5159 5160 5161 5162 996 998 3399 3397 4163 3632 3633 3634 1161 1162 1163 1164 1165 1166 1167 1168 1169 4160 4161 3901 3902 3903 3904 3905 3906 3896 546 547 548 1143 3639 3640 3641 1449 1451 1453 1455 1457 4717 2083 1848 1846 1844 1842 1840 1838 273 271 269 267 265 263 261 259 257 255 253 251 249 275 2580 2578 1034 1036 1038 359 361 314 316 318 320 322 324 326 328 330 332 1243 1245 1247 1249 1251 1827 1220 2602"/>
    </vehicle>

    <vehicle id="2426_0" type="car" depart="25385.00" arrival="25655.00">
        <route edges="496 498 500 502 3683 3685 3687 3651 2173 2174 3652 3688 3686 3684 503 501 499 497 495 493 3638 3636 3629 3630 3631 1801 2114 2115 2116 2117 1132 1133 1134 1135 1136 1137 1138 541 542 543 544 545 4111 4112 4113 4114 4115 4116 4117 4118 4119 4120 1129 1130 1131 1090 1091 1092 1093 1094 1095 1096 1097 1098 1099 1100 4156 4157 4158 4159 4162 5158 5159 5160 5161 5162 980 982 984 1084 1086 1088 1107 1109 1111 1113 1115 1117 1119 1121 2944 2942 2940 3154 3619"/>
    </vehicle>

    <vehicle id="363_0" type="car" depart="25386.00" arrival="25672.00">
        <route edges="778 779 780 719 721 4118 4119 4120 1129 1130 1131 1090 1091 1092 1093 1094 1095 1096 1097 1098 1099 1100 1183 1184 1185 1186 1161 1162 4152 4153 4164 4166 4168 4170 3513 3514 4972 4973 4974 4975 4976 4977 194 195 3508 3509 3510 3511 3512 3497 3498 3456 245 139 140 141 142 143 144 145 146 147 148 149 150 151 152 153 539 540 524"/>
    </vehicle>

    <vehicle id="1472_0" type="car" depart="25668.00" arrival="25705.00">