<?xml version="1.0" encoding="UTF-8"?>

<!-- generated on 2023-01-28 14:06:27 by Eclipse SUMO sumo Version 1.15.0
<configuration xmlns:xsi="http://www.w3.org/2001/XMLSchema-instance" xsi:noNamespaceSchemaLocation="http://sumo.dlr.de/xsd/sumoConfiguration.xsd">

    <input>
        <net-file value="MASA.net.xml"/>
        <route-files value="plans/plans5000.rou.xml"/>
        <additional-files value="MASA.add.xml"/>
    </input>

    <output>
        <summary-output value="output/5000Veh/summary.xml"/>
        <tripinfo-output value="output/5000Veh/tripinfos.xml"/>
        <vehroute-output value="output/5000Veh/vehroute.xml"/>
        <statistic-output value="output/5000Veh/stats.xml"/>
    </output>

    <time>
        <begin value="0"/>
        <end value="86400"/>
        <step-length value="1"/>
    </time>

</configuration>
-->

<tripinfos xmlns:xsi="http://www.w3.org/2001/XMLSchema-instance" xsi:noNamespaceSchemaLocation="http://sumo.dlr.de/xsd/tripinfo_file.xsd">
    <tripinfo id="667_0" depart="20094.00" departLane="119_0" departPos="4.93" departSpeed="0.00" departDelay="0.00" arrival="20255.00" arrivalLane="55_0" arrivalPos="0.40" arrivalSpeed="4.08" duration="161.00" routeLength="562.86" waitingTime="23.00" waitingCount="1" stopTime="0.00" timeLoss="46.63" rerouteNo="1" devices="vehroute_667_0 tripinfo_667_0 routing_667_0" vType="car" speedFactor="1.06" vaporized=""/>
    <tripinfo id="1763_0" depart="20214.00" departLane="409_0" departPos="5.10" departSpeed="0.00" departDelay="0.00" arrival="20281.00" arrivalLane="422_0" arrivalPos="44.12" arrivalSpeed="2.91" duration="67.00" routeLength="338.68" waitingTime="0.00" waitingCount="0" stopTime="0.00" timeLoss="8.61" rerouteNo="1" devices="vehroute_1763_0 tripinfo_1763_0 routing_1763_0" vType="car" speedFactor="0.94" vaporized=""/>
    <tripinfo id="28_0" depart="20938.00" departLane="272_0" departPos="4.65" departSpeed="0.00" departDelay="0.00" arrival="21101.00" arrivalLane="211_0" arrivalPos="23.00" arrivalSpeed="13.10" duration="163.00" routeLength="1931.71" waitingTime="0.00" waitingCount="0" stopTime="0.00" timeLoss="17.89" rerouteNo="1" devices="vehroute_28_0 tripinfo_28_0 routing_28_0" vType="car" speedFactor="1.01" vaporized=""/>
    <tripinfo id="2423_0" depart="21456.00" departLane="451_0" departPos="5.10" departSpeed="0.00" departDelay="0.00" arrival="21535.00" arrivalLane="109_0" arrivalPos="3.55" arrivalSpeed="4.49" duration="79.00" routeLength="170.18" waitingTime="31.00" waitingCount="1" stopTime="0.00" timeLoss="40.25" rerouteNo="1" devices="vehroute_2423_0 tripinfo_2423_0 routing_2423_0" vType="car" speedFactor="1.08" vaporized=""/>
    <tripinfo id="1099_0" depart="22494.00" departLane="251_0" departPos="0.20" departSpeed="0.00" departDelay="0.00" arrival="22743.00" arrivalLane="123_0" arrivalPos="2.79" arrivalSpeed="4.19" duration="249.00" routeLength="964.56" waitingTime="0.00" waitingCount="0" stopTime="0.00" timeLoss="36.38" rerouteNo="1" devices="vehroute_1099_0 tripinfo_1099_0 routing_1099_0" vType="car" speedFactor="1.03" vaporized=""/>
    <tripinfo id="792_0" depart="22814.00" departLane="573_0" departPos="5.10" departSpeed="0.00" departDelay="0.00" arrival="22961.00" arrivalLane="588_0" arrivalPos="3.10" arrivalSpeed="6.41" duration="147.00" routeLength="832.98" waitingTime="5.00" waitingCount="1" stopTime="0.00" timeLoss="24.48" rerouteNo="1" devices="vehroute_792_0 tripinfo_792_0 routing_792_0" vType="car" speedFactor="0.83" vaporized=""/>
    <tripinfo id="1238_0" depart="23059.00" departLane="350_0" departPos="5.10" departSpeed="0.00" departDelay="0.00" arrival="23172.00" arrivalLane="236_0" arrivalPos="87.64" arrivalSpeed="13.46" duration="113.00" routeLength="1306.81" waitingTime="0.00" waitingCount="0" stopTime="0.00" timeLoss="12.91" rerouteNo="1" devices="vehroute_1238_0 tripinfo_1238_0 routing_1238_0" vType="car" speedFactor="1.05" vaporized=""/>
    <tripinfo id="1996_0" depart="23168.00" departLane="431_0" departPos="5.10" departSpeed="0.00" departDelay="0.00" arrival="23339.00" arrivalLane="66_0" arrivalPos="0.79" arrivalSpeed="3.39" duration="171.00" routeLength="720.52" waitingTime="36.00" waitingCount="1" stopTime="0.00" timeLoss="57.07" rerouteNo="1" devices="vehroute_1996_0 tripinfo_1996_0 routing_1996_0" vType="car" speedFactor="0.94" vaporized=""/>
    <tripinfo id="1337_0" depart="23166.00" departLane="373_0" departPos="5.10" departSpeed="0.00" departDelay="0.00" arrival="23594.00" arrivalLane="495_0" arrivalPos="7.24" arrivalSpeed="3.65" duration="428.00" routeLength="1816.60" waitingTime="0.00" waitingCount="0" stopTime="0.00" timeLoss="61.44" rerouteNo="1" devices="vehroute_1337_0 tripinfo_1337_0 routing_1337_0" vType="car" speedFactor="0.89" vaporized=""/>
    <tripinfo id="2032_0" depart="23603.00" departLane="528_0" departPos="5.10" departSpeed="0.00" departDelay="0.00" arrival="23675.00" arrivalLane="351_0" arrivalPos="28.70" arrivalSpeed="8.93" duration="72.00" routeLength="742.57" waitingTime="0.00" waitingCount="0" stopTime="0.00" timeLoss="10.10" rerouteNo="1" devices="vehroute_2032_0 tripinfo_2032_0 routing_2032_0" vType="car" speedFactor="1.09" vaporized=""/>
    <tripinfo id="1785_0" depart="23444.00" departLane="396_0" departPos="5.10" departSpeed="0.00" departDelay="0.00" arrival="23677.00" arrivalLane="5_0" arrivalPos="0.92" arrivalSpeed="3.12" duration="233.00" routeLength="619.94" waitingTime="24.00" waitingCount="1" stopTime="0.00" timeLoss="59.23" rerouteNo="1" devices="vehroute_1785_0 tripinfo_1785_0 routing_1785_0" vType="car" speedFactor="0.86" vaporized=""/>
    <tripinfo id="1568_0" depart="23658.00" departLane="196_0" departPos="2.55" departSpeed="0.00" departDelay="0.00" arrival="23773.00" arrivalLane="238_0" arrivalPos="90.49" arrivalSpeed="13.15" duration="115.00" routeLength="1321.12" waitingTime="0.00" waitingCount="0" stopTime="0.00" timeLoss="14.87" rerouteNo="1" devices="vehroute_1568_0 tripinfo_1568_0 routing_1568_0" vType="car" speedFactor="1.03" vaporized=""/>
    <tripinfo id="1588_0" depart="23923.00" departLane="424_0" departPos="5.10" departSpeed="0.00" departDelay="0.00" arrival="24135.00" arrivalLane="159_0" arrivalPos="4.92" arrivalSpeed="3.47" duration="212.00" routeLength="941.37" waitingTime="0.00" waitingCount="0" stopTime="0.00" timeLoss="31.78" rerouteNo="1" devices="vehroute_1588_0 tripinfo_1588_0 routing_1588_0" vType="car" speedFactor="0.99" vaporized=""/>
    <tripinfo id="2098_0" depart="23888.00" departLane="7_0" departPos="5.10" departSpeed="0.00" departDelay="0.00" arrival="24186.00" arrivalLane="256_0" arrivalPos="0.20" arrivalSpeed="8.33" duration="298.00" routeLength="979.91" waitingTime="70.00" waitingCount="2" stopTime="0.00" timeLoss="105.70" rerouteNo="1" devices="vehroute_2098_0 tripinfo_2098_0 routing_2098_0" vType="car" speedFactor="1.12" vaporized=""/>
    <tripinfo id="1343_0" depart="24086.00" departLane="400_0" departPos="5.10" departSpeed="0.00" departDelay="0.00" arrival="24188.00" arrivalLane="109_0" arrivalPos="3.55" arrivalSpeed="3.69" duration="102.00" routeLength="327.79" waitingTime="0.00" waitingCount="0" stopTime="0.00" timeLoss="17.80" rerouteNo="1" devices="vehroute_1343_0 tripinfo_1343_0 routing_1343_0" vType="car" speedFactor="0.94" vaporized=""/>
    <tripinfo id="1399_0" depart="23801.00" departLane="49_0" departPos="5.10" departSpeed="0.00" departDelay="0.00" arrival="24212.00" arrivalLane="457_0" arrivalPos="31.37" arrivalSpeed="3.60" duration="411.00" routeLength="1983.78" waitingTime="0.00" waitingCount="0" stopTime="0.00" timeLoss="50.92" rerouteNo="1" devices="vehroute_1399_0 tripinfo_1399_0 routing_1399_0" vType="car" speedFactor="1.05" vaporized=""/>
    <tripinfo id="2429_0" depart="24187.00" departLane="13_0" departPos="1.30" departSpeed="0.00" departDelay="0.00" arrival="24256.00" arrivalLane="324_0" arrivalPos="0.91" arrivalSpeed="3.81" duration="69.00" routeLength="559.83" waitingTime="0.00" waitingCount="0" stopTime="0.00" timeLoss="7.68" rerouteNo="1" devices="vehroute_2429_0 tripinfo_2429_0 routing_2429_0" vType="car" speedFactor="1.16" vaporized=""/>
    <tripinfo id="2119_0" depart="24127.00" departLane="527_0" departPos="5.10" departSpeed="0.00" departDelay="0.00" arrival="24259.00" arrivalLane="371_0" arrivalPos="4.66" arrivalSpeed="6.04" duration="132.00" routeLength="554.24" waitingTime="33.00" waitingCount="2" stopTime="0.00" timeLoss="47.16" rerouteNo="1" devices="vehroute_2119_0 tripinfo_2119_0 routing_2119_0" vType="car" speedFactor="0.94" vaporized=""/>
    <tripinfo id="1769_0" depart="24050.00" departLane="159_0" departPos="4.92" departSpeed="0.00" departDelay="0.00" arrival="24276.00" arrivalLane="522_0" arrivalPos="41.54" arrivalSpeed="11.57" duration="226.00" routeLength="846.67" waitingTime="38.00" waitingCount="1" stopTime="0.00" timeLoss="69.57" rerouteNo="1" devices="vehroute_1769_0 tripinfo_1769_0 routing_1769_0" vType="car" speedFactor="0.88" vaporized=""/>
    <tripinfo id="1488_0" depart="24293.00" departLane="578_0" departPos="5.10" departSpeed="0.00" departDelay="0.00" arrival="24395.00" arrivalLane="615_0" arrivalPos="11.03" arrivalSpeed="5.77" duration="102.00" routeLength="853.46" waitingTime="5.00" waitingCount="1" stopTime="0.00" timeLoss="17.73" rerouteNo="1" devices="vehroute_1488_0 tripinfo_1488_0 routing_1488_0" vType="car" speedFactor="1.02" vaporized=""/>
    <tripinfo id="1465_0" depart="24008.00" departLane="17_0" departPos="1.55" departSpeed="0.00" departDelay="0.00" arrival="24415.00" arrivalLane="76_0" arrivalPos="0.20" arrivalSpeed="2.81" duration="407.00" routeLength="1546.58" waitingTime="11.00" waitingCount="1" stopTime="0.00" timeLoss="76.07" rerouteNo="1" devices="vehroute_1465_0 tripinfo_1465_0 routing_1465_0" vType="car" speedFactor="0.93" vaporized=""/>
    <tripinfo id="1553_0" depart="24358.00" departLane="286_0" departPos="3.29" departSpeed="0.00" departDelay="0.00" arrival="24440.00" arrivalLane="62_0" arrivalPos="26.70" arrivalSpeed="3.01" duration="82.00" routeLength="360.66" waitingTime="0.00" waitingCount="0" stopTime="0.00" timeLoss="13.15" rerouteNo="1" devices="vehroute_1553_0 tripinfo_1553_0 routing_1553_0" vType="car" speedFactor="0.97" vaporized=""/>
    <tripinfo id="1537_0" depart="24489.00" departLane="217_0" departPos="5.10" departSpeed="0.00" departDelay="0.00" arrival="24575.00" arrivalLane="267_0" arrivalPos="4.44" arrivalSpeed="6.79" duration="86.00" routeLength="794.30" waitingTime="0.00" waitingCount="0" stopTime="0.00" timeLoss="9.53" rerouteNo="1" devices="vehroute_1537_0 tripinfo_1537_0 routing_1537_0" vType="car" speedFactor="0.83" vaporized=""/>
    <tripinfo id="487_0" depart="24560.00" departLane="306_0" departPos="0.20" departSpeed="0.00" departDelay="0.00" arrival="24615.00" arrivalLane="425_0" arrivalPos="63.58" arrivalSpeed="3.48" duration="55.00" routeLength="244.24" waitingTime="0.00" waitingCount="0" stopTime="0.00" timeLoss="8.28" rerouteNo="1" devices="vehroute_487_0 tripinfo_487_0 routing_487_0" vType="car" speedFactor="0.87" vaporized=""/>
    <tripinfo id="566_0" depart="24331.00" departLane="108_0" departPos="5.10" departSpeed="0.00" departDelay="0.00" arrival="24684.00" arrivalLane="169_0" arrivalPos="63.60" arrivalSpeed="3.73" duration="353.00" routeLength="1256.01" waitingTime="0.00" waitingCount="0" stopTime="0.00" timeLoss="53.85" rerouteNo="1" devices="vehroute_566_0 tripinfo_566_0 routing_566_0" vType="car" speedFactor="1.01" vaporized=""/>
    <tripinfo id="220_0" depart="24606.00" departLane="621_0" departPos="5.10" departSpeed="0.00" departDelay="0.00" arrival="24758.00" arrivalLane="475_0" arrivalPos="0.20" arrivalSpeed="2.74" duration="152.00" routeLength="958.77" waitingTime="0.00" waitingCount="0" stopTime="0.00" timeLoss="19.86" rerouteNo="1" devices="vehroute_220_0 tripinfo_220_0 routing_220_0" vType="car" speedFactor="0.92" vaporized=""/>
    <tripinfo id="923_0" depart="24626.00" departLane="358_0" departPos="5.10" departSpeed="0.00" departDelay="0.00" arrival="24761.00" arrivalLane="28_0" arrivalPos="51.39" arrivalSpeed="6.62" duration="135.00" routeLength="817.75" waitingTime="21.00" waitingCount="1" stopTime="0.00" timeLoss="34.92" rerouteNo="1" devices="vehroute_923_0 tripinfo_923_0 routing_923_0" vType="car" speedFactor="1.13" vaporized=""/>
    <tripinfo id="2335_0" depart="24613.00" departLane="173_0" departPos="5.10" departSpeed="0.00" departDelay="0.00" arrival="24785.00" arrivalLane="575_0" arrivalPos="0.20" arrivalSpeed="2.93" duration="172.00" routeLength="1003.35" waitingTime="21.00" waitingCount="1" stopTime="0.00" timeLoss="43.18" rerouteNo="1" devices="vehroute_2335_0 tripinfo_2335_0 routing_2335_0" vType="car" speedFactor="0.95" vaporized=""/>
    <tripinfo id="2030_0" depart="24776.00" departLane="520_0" departPos="5.10" departSpeed="0.00" departDelay="0.00" arrival="24798.00" arrivalLane="514_0" arrivalPos="46.10" arrivalSpeed="12.01" duration="22.00" routeLength="233.86" waitingTime="0.00" waitingCount="0" stopTime="0.00" timeLoss="3.68" rerouteNo="1" devices="vehroute_2030_0 tripinfo_2030_0 routing_2030_0" vType="car" speedFactor="0.93" vaporized=""/>
    <tripinfo id="2388_0" depart="24466.00" departLane="578_0" departPos="5.10" departSpeed="0.00" departDelay="0.00" arrival="24808.00" arrivalLane="88_0" arrivalPos="24.96" arrivalSpeed="3.25" duration="342.00" routeLength="970.67" waitingTime="25.00" waitingCount="1" stopTime="0.00" timeLoss="85.64" rerouteNo="1" devices="vehroute_2388_0 tripinfo_2388_0 routing_2388_0" vType="car" speedFactor="0.89" vaporized=""/>
    <tripinfo id="2419_0" depart="24958.00" departLane="567_0" departPos="4.78" departSpeed="0.00" departDelay="0.00" arrival="24974.00" arrivalLane="15_0" arrivalPos="3.74" arrivalSpeed="3.96" duration="16.00" routeLength="58.69" waitingTime="0.00" waitingCount="0" stopTime="0.00" timeLoss="3.55" rerouteNo="1" devices="vehroute_2419_0 tripinfo_2419_0 routing_2419_0" vType="car" speedFactor="1.01" vaporized=""/>
    <tripinfo id="665_0" depart="24893.00" departLane="610_0" departPos="5.10" departSpeed="0.00" departDelay="0.00" arrival="25092.00" arrivalLane="5_0" arrivalPos="0.92" arrivalSpeed="3.93" duration="199.00" routeLength="1415.92" waitingTime="3.00" waitingCount="1" stopTime="0.00" timeLoss="25.11" rerouteNo="1" devices="vehroute_665_0 tripinfo_665_0 routing_665_0" vType="car" speedFactor="1.15" vaporized=""/>
    <tripinfo id="1163_0" depart="24889.00" departLane="14_0" departPos="5.10" departSpeed="0.00" departDelay="0.00" arrival="25105.00" arrivalLane="7_0" arrivalPos="67.72" arrivalSpeed="4.42" duration="216.00" routeLength="1390.05" waitingTime="17.00" waitingCount="1" stopTime="0.00" timeLoss="39.29" rerouteNo="1" devices="vehroute_1163_0 tripinfo_1163_0 routing_1163_0" vType="car" speedFactor="1.18" vaporized=""/>
    <tripinfo id="1028_0" depart="25046.00" departLane="512_0" departPos="5.10" departSpeed="0.00" departDelay="0.00" arrival="25108.00" arrivalLane="222_0" arrivalPos="29.61" arrivalSpeed="13.03" duration="62.00" routeLength="720.78" waitingTime="0.00" waitingCount="0" stopTime="0.00" timeLoss="9.04" rerouteNo="1" devices="vehroute_1028_0 tripinfo_1028_0 routing_1028_0" vType="car" speedFactor="0.99" vaporized=""/>
    <tripinfo id="2079_0" depart="25046.00" departLane="533_0" departPos="5.10" departSpeed="0.00" departDelay="0.00" arrival="25183.00" arrivalLane="621_0" arrivalPos="88.04" arrivalSpeed="6.40" duration="137.00" routeLength="686.69" waitingTime="0.00" waitingCount="0" stopTime="0.00" timeLoss="18.59" rerouteNo="1" devices="vehroute_2079_0 tripinfo_2079_0 routing_2079_0" vType="car" speedFactor="1.02" vaporized=""/>
    <tripinfo id="2073_0" depart="25081.00" departLane="414_0" departPos="5.10" departSpeed="0.00" departDelay="0.00" arrival="25184.00" arrivalLane="464_0" arrivalPos="15.99" arrivalSpeed="2.92" duration="103.00" routeLength="465.95" waitingTime="0.00" waitingCount="0" stopTime="0.00" timeLoss="17.87" rerouteNo="1" devices="vehroute_2073_0 tripinfo_2073_0 routing_2073_0" vType="car" speedFactor="0.97" vaporized=""/>
    <tripinfo id="572_0" depart="25099.00" departLane="105_0" departPos="5.10" departSpeed="0.00" departDelay="0.00" arrival="25229.00" arrivalLane="532_0" arrivalPos="61.97" arrivalSpeed="4.38" duration="130.00" routeLength="603.45" waitingTime="0.00" waitingCount="0" stopTime="0.00" timeLoss="17.93" rerouteNo="1" devices="vehroute_572_0 tripinfo_572_0 routing_572_0" vType="car" speedFactor="1.18" vaporized=""/>
    <tripinfo id="855_0" depart="25119.00" departLane="584_0" departPos="5.10" departSpeed="0.00" departDelay="0.00" arrival="25236.00" arrivalLane="251_0" arrivalPos="0.20" arrivalSpeed="8.55" duration="117.00" routeLength="937.96" waitingTime="0.00" waitingCount="0" stopTime="0.00" timeLoss="13.58" rerouteNo="1" devices="vehroute_855_0 tripinfo_855_0 routing_855_0" vType="car" speedFactor="1.10" vaporized=""/>
    <tripinfo id="1222_0" depart="25223.00" departLane="343_0" departPos="5.10" departSpeed="0.00" departDelay="0.00" arrival="25278.00" arrivalLane="548_0" arrivalPos="3.82" arrivalSpeed="3.81" duration="55.00" routeLength="311.32" waitingTime="0.00" waitingCount="0" stopTime="0.00" timeLoss="9.85" rerouteNo="1" devices="vehroute_1222_0 tripinfo_1222_0 routing_1222_0" vType="car" speedFactor="1.09" vaporized=""/>
    <tripinfo id="1233_0" depart="25163.00" departLane="368_0" departPos="4.56" departSpeed="0.00" departDelay="0.00" arrival="25282.00" arrivalLane="173_0" arrivalPos="80.97" arrivalSpeed="6.48" duration="119.00" routeLength="484.56" waitingTime="36.00" waitingCount="1" stopTime="0.00" timeLoss="46.93" rerouteNo="1" devices="vehroute_1233_0 tripinfo_1233_0 routing_1233_0" vType="car" speedFactor="0.90" vaporized=""/>
    <tripinfo id="297_0" depart="25303.00" departLane="119_0" departPos="4.93" departSpeed="0.00" departDelay="0.00" arrival="25355.00" arrivalLane="629_0" arrivalPos="13.09" arrivalSpeed="8.06" duration="52.00" routeLength="402.63" waitingTime="0.00" waitingCount="0" stopTime="0.00" timeLoss="6.82" rerouteNo="1" devices="vehroute_297_0 tripinfo_297_0 routing_297_0" vType="car" speedFactor="1.09" vaporized=""/>
    <tripinfo id="2283_0" depart="25287.00" departLane="332_0" departPos="5.10" departSpeed="0.00" departDelay="0.00" arrival="25357.00" arrivalLane="72_0" arrivalPos="37.73" arrivalSpeed="4.10" duration="70.00" routeLength="259.28" waitingTime="0.00" waitingCount="0" stopTime="0.00" timeLoss="10.18" rerouteNo="1" devices="vehroute_2283_0 tripinfo_2283_0 routing_2283_0" vType="car" speedFactor="1.04" vaporized=""/>
    <tripinfo id="1522_0" depart="25194.00" departLane="217_0" departPos="5.10" departSpeed="0.00" departDelay="0.00" arrival="25389.00" arrivalLane="102_0" arrivalPos="53.56" arrivalSpeed="3.92" duration="195.00" routeLength="915.48" waitingTime="0.00" waitingCount="0" stopTime="0.00" timeLoss="30.40" rerouteNo="1" devices="vehroute_1522_0 tripinfo_1522_0 routing_1522_0" vType="car" speedFactor="0.96" vaporized=""/>
    <tripinfo id="1694_0" depart="24982.00" departLane="162_0" departPos="4.90" departSpeed="0.00" departDelay="0.00" arrival="25426.00" arrivalLane="191_0" arrivalPos="192.36" arrivalSpeed="4.73" duration="444.00" routeLength="1833.49" waitingTime="75.00" waitingCount="3" stopTime="0.00" timeLoss="129.78" rerouteNo="1" devices="vehroute_1694_0 tripinfo_1694_0 routing_1694_0" vType="car" speedFactor="1.17" vaporized=""/>
    <tripinfo id="2129_0" depart="25399.00" departLane="437_0" departPos="5.10" departSpeed="0.00" departDelay="0.00" arrival="25465.00" arrivalLane="583_0" arrivalPos="4.24" arrivalSpeed="6.34" duration="66.00" routeLength="347.32" waitingTime="2.00" waitingCount="1" stopTime="0.00" timeLoss="10.89" rerouteNo="1" devices="vehroute_2129_0 tripinfo_2129_0 routing_2129_0" vType="car" speedFactor="1.02" vaporized=""/>
    <tripinfo id="367_0" depart="25430.00" departLane="440_0" departPos="3.75" departSpeed="0.00" departDelay="0.00" arrival="25468.00" arrivalLane="569_0" arrivalPos="13.74" arrivalSpeed="7.33" duration="38.00" routeLength="235.44" waitingTime="0.00" waitingCount="0" stopTime="0.00" timeLoss="4.81" rerouteNo="1" devices="vehroute_367_0 tripinfo_367_0 routing_367_0" vType="car" speedFactor="1.00" vaporized=""/>
    <tripinfo id="2226_0" depart="25388.00" departLane="227_0" departPos="5.10" departSpeed="0.00" departDelay="0.00" arrival="25494.00" arrivalLane="258_0" arrivalPos="3.33" arrivalSpeed="7.11" duration="106.00" routeLength="992.53" waitingTime="0.00" waitingCount="0" stopTime="0.00" timeLoss="9.82" rerouteNo="1" devices="vehroute_2226_0 tripinfo_2226_0 routing_2226_0" vType="car" speedFactor="0.85" vaporized=""/>
    <tripinfo id="25_0" depart="25367.00" departLane="279_0" departPos="5.10" departSpeed="0.00" departDelay="0.00" arrival="25506.00" arrivalLane="435_0" arrivalPos="5.16" arrivalSpeed="2.90" duration="139.00" routeLength="894.26" waitingTime="0.00" waitingCount="0" stopTime="0.00" timeLoss="18.85" rerouteNo="1" devices="vehroute_25_0 tripinfo_25_0 routing_25_0" vType="car" speedFactor="0.88" vaporized=""/>
    <tripinfo id="715_0" depart="25189.00" departLane="72_0" departPos="5.10" departSpeed="0.00" departDelay="0.00" arrival="25515.00" arrivalLane="430_0" arrivalPos="0.20" arrivalSpeed="3.52" duration="326.00" routeLength="1404.79" waitingTime="13.00" waitingCount="1" stopTime="0.00" timeLoss="60.70" rerouteNo="1" devices="vehroute_715_0 tripinfo_715_0 routing_715_0" vType="car" speedFactor="1.03" vaporized=""/>
    <tripinfo id="206_0" depart="25397.00" departLane="30_0" departPos="5.10" departSpeed="0.00" departDelay="0.00" arrival="25520.00" arrivalLane="475_0" arrivalPos="0.20" arrivalSpeed="3.40" duration="123.00" routeLength="737.44" waitingTime="5.00" waitingCount="2" stopTime="0.00" timeLoss="25.06" rerouteNo="1" devices="vehroute_206_0 tripinfo_206_0 routing_206_0" vType="car" speedFactor="1.17" vaporized=""/>
    <tripinfo id="991_0" depart="25380.00" departLane="465_0" departPos="5.10" departSpeed="0.00" departDelay="0.00" arrival="25539.00" arrivalLane="526_0" arrivalPos="16.61" arrivalSpeed="10.73" duration="159.00" routeLength="674.91" waitingTime="4.00" waitingCount="1" stopTime="0.00" timeLoss="29.75" rerouteNo="1" devices="vehroute_991_0 tripinfo_991_0 routing_991_0" vType="car" speedFactor="0.85" vaporized=""/>
    <tripinfo id="411_0" depart="25255.00" departLane="446_0" departPos="5.10" departSpeed="0.00" departDelay="0.00" arrival="25547.00" arrivalLane="613_0" arrivalPos="9.14" arrivalSpeed="6.77" duration="292.00" routeLength="1348.93" waitingTime="5.00" waitingCount="1" stopTime="0.00" timeLoss="55.40" rerouteNo="1" devices="vehroute_411_0 tripinfo_411_0 routing_411_0" vType="car" speedFactor="1.04" vaporized=""/>
    <tripinfo id="996_0" depart="25323.00" departLane="284_0" departPos="5.10" departSpeed="0.00" departDelay="0.00" arrival="25576.00" arrivalLane="470_0" arrivalPos="65.88" arrivalSpeed="3.20" duration="253.00" routeLength="1294.57" waitingTime="0.00" waitingCount="0" stopTime="0.00" timeLoss="33.92" rerouteNo="1" devices="vehroute_996_0 tripinfo_996_0 routing_996_0" vType="car" speedFactor="1.00" vaporized=""/>
    <tripinfo id="1909_0" depart="25506.00" departLane="225_0" departPos="5.10" departSpeed="0.00" departDelay="0.00" arrival="25600.00" arrivalLane="483_0" arrivalPos="9.16" arrivalSpeed="5.80" duration="94.00" routeLength="607.36" waitingTime="0.00" waitingCount="0" stopTime="0.00" timeLoss="13.80" rerouteNo="1" devices="vehroute_1909_0 tripinfo_1909_0 routing_1909_0" vType="car" speedFactor="1.00" vaporized=""/>
    <tripinfo id="250_0" depart="25534.00" departLane="345_0" departPos="5.10" departSpeed="0.00" departDelay="0.00" arrival="25600.00" arrivalLane="538_0" arrivalPos="3.22" arrivalSpeed="4.28" duration="66.00" routeLength="409.30" waitingTime="0.00" waitingCount="0" stopTime="0.00" timeLoss="10.56" rerouteNo="1" devices="vehroute_250_0 tripinfo_250_0 routing_250_0" vType="car" speedFactor="1.14" vaporized=""/>
    <tripinfo id="1001_0" depart="25579.00" departLane="159_0" departPos="4.92" departSpeed="0.00" departDelay="0.00" arrival="25682.00" arrivalLane="498_0" arrivalPos="5.55" arrivalSpeed="6.74" duration="103.00" routeLength="482.72" waitingTime="0.00" waitingCount="0" stopTime="0.00" timeLoss="14.85" rerouteNo="1" devices="vehroute_1001_0 tripinfo_1001_0 routing_1001_0" vType="car" speedFactor="1.08" vaporized=""/>
    <tripinfo id="854_0" depart="25628.00" departLane="177_0" departPos="5.10" departSpeed="0.00" departDelay="0.00" arrival="25710.00" arrivalLane="260_0" arrivalPos="0.25" arrivalSpeed="8.24" duration="82.00" routeLength="614.70" waitingTime="0.00" waitingCount="0" stopTime="0.00" timeLoss="8.58" rerouteNo="1" devices="vehroute_854_0 tripinfo_854_0 routing_854_0" vType="car" speedFactor="1.02" vaporized=""/>
    <tripinfo id="2418_0" depart="25343.00" departLane="309_0" departPos="0.20" departSpeed="0.00" departDelay="0.00" arrival="25715.00" arrivalLane="504_0" arrivalPos="351.39" arrivalSpeed="3.71" duration="372.00" routeLength="1627.59" waitingTime="10.00" waitingCount="1" stopTime="0.00" timeLoss="66.42" rerouteNo="1" devices="vehroute_2418_0 tripinfo_2418_0 routing_2418_0" vType="car" speedFactor="0.90" vaporized=""/>
    <tripinfo id="1285_0" depart="25629.00" departLane="327_0" departPos="5.10" departSpeed="0.00" departDelay="0.00" arrival="25753.00" arrivalLane="344_0" arrivalPos="80.06" arrivalSpeed="7.39" duration="124.00" routeLength="655.30" waitingTime="0.00" waitingCount="0" stopTime="0.00" timeLoss="16.65" rerouteNo="1" devices="vehroute_1285_0 tripinfo_1285_0 routing_1285_0" vType="car" speedFactor="0.99" vaporized=""/>
    <tripinfo id="2338_0" depart="25670.00" departLane="341_0" departPos="5.10" departSpeed="0.00" departDelay="0.00" arrival="25768.00" arrivalLane="117_0" arrivalPos="5.65" arrivalSpeed="3.22" duration="98.00" routeLength="378.62" waitingTime="0.00" waitingCount="0" stopTime="0.00" timeLoss="17.09" rerouteNo="1" devices="vehroute_2338_0 tripinfo_2338_0 routing_2338_0" vType="car" speedFactor="0.88" vaporized=""/>
    <tripinfo id="2135_0" depart="25705.00" departLane="309_0" departPos="0.20" departSpeed="0.00" departDelay="0.00" arrival="25839.00" arrivalLane="595_0" arrivalPos="97.02" arrivalSpeed="11.64" duration="134.00" routeLength="576.83" waitingTime="0.00" waitingCount="0" stopTime="0.00" timeLoss="27.92" rerouteNo="1" devices="vehroute_2135_0 tripinfo_2135_0 routing_2135_0" vType="car" speedFactor="0.91" vaporized=""/>
    <tripinfo id="2289_0" depart="25626.00" departLane="450_0" departPos="5.10" departSpeed="0.00" departDelay="0.00" arrival="25859.00" arrivalLane="192_0" arrivalPos="299.75" arrivalSpeed="4.08" duration="233.00" routeLength="872.64" waitingTime="0.00" waitingCount="0" stopTime="0.00" timeLoss="45.06" rerouteNo="1" devices="vehroute_2289_0 tripinfo_2289_0 routing_2289_0" vType="car" speedFactor="1.12" vaporized=""/>
    <tripinfo id="1533_0" depart="25412.00" departLane="170_0" departPos="5.10" departSpeed="0.00" departDelay="0.00" arrival="25864.00" arrivalLane="359_0" arrivalPos="64.53" arrivalSpeed="6.73" duration="452.00" routeLength="2296.14" waitingTime="0.00" waitingCount="0" stopTime="0.00" timeLoss="54.82" rerouteNo="1" devices="vehroute_1533_0 tripinfo_1533_0 routing_1533_0" vType="car" speedFactor="1.10" vaporized=""/>
    <tripinfo id="2077_0" depart="25838.00" departLane="512_0" departPos="5.10" departSpeed="0.00" departDelay="0.00" arrival="25878.00" arrivalLane="606_0" arrivalPos="4.70" arrivalSpeed="6.88" duration="40.00" routeLength="299.03" waitingTime="0.00" waitingCount="0" stopTime="0.00" timeLoss="8.08" rerouteNo="1" devices="vehroute_2077_0 tripinfo_2077_0 routing_2077_0" vType="car" speedFactor="0.96" vaporized=""/>
    <tripinfo id="1860_0" depart="25548.00" departLane="470_0" departPos="5.10" departSpeed="0.00" departDelay="0.00" arrival="25884.00" arrivalLane="476_0" arrivalPos="0.20" arrivalSpeed="3.70" duration="336.00" routeLength="1249.99" waitingTime="70.00" waitingCount="2" stopTime="0.00" timeLoss="114.41" rerouteNo="1" devices="vehroute_1860_0 tripinfo_1860_0 routing_1860_0" vType="car" speedFactor="1.02" vaporized=""/>
    <tripinfo id="2144_0" depart="25567.00" departLane="272_0" departPos="4.65" departSpeed="0.00" departDelay="0.00" arrival="25888.00" arrivalLane="50_0" arrivalPos="85.02" arrivalSpeed="3.81" duration="321.00" routeLength="1067.22" waitingTime="23.00" waitingCount="1" stopTime="0.00" timeLoss="74.68" rerouteNo="1" devices="vehroute_2144_0 tripinfo_2144_0 routing_2144_0" vType="car" speedFactor="0.97" vaporized=""/>
    <tripinfo id="24_0" depart="25860.00" departLane="433_0" departPos="5.10" departSpeed="0.00" departDelay="0.00" arrival="25901.00" arrivalLane="342_0" arrivalPos="50.38" arrivalSpeed="8.55" duration="41.00" routeLength="202.20" waitingTime="0.00" waitingCount="0" stopTime="0.00" timeLoss="7.03" rerouteNo="1" devices="vehroute_24_0 tripinfo_24_0 routing_24_0" vType="car" speedFactor="1.03" vaporized=""/>
    <tripinfo id="1430_0" depart="25868.00" departLane="525_0" departPos="5.10" departSpeed="0.00" departDelay="0.00" arrival="25938.00" arrivalLane="252_0" arrivalPos="4.21" arrivalSpeed="7.34" duration="70.00" routeLength="685.53" waitingTime="0.00" waitingCount="0" stopTime="0.00" timeLoss="11.96" rerouteNo="1" devices="vehroute_1430_0 tripinfo_1430_0 routing_1430_0" vType="car" speedFactor="1.01" vaporized=""/>
    <tripinfo id="285_0" depart="25526.00" departLane="203_0" departPos="5.10" departSpeed="0.00" departDelay="0.00" arrival="25962.00" arrivalLane="155_0" arrivalPos="4.90" arrivalSpeed="2.91" duration="436.00" routeLength="1628.11" waitingTime="5.00" waitingCount="1" stopTime="0.00" timeLoss="77.73" rerouteNo="1" devices="vehroute_285_0 tripinfo_285_0 routing_285_0" vType="car" speedFactor="0.90" vaporized=""/>