<?xml version="1.0" encoding="UTF-8"?>

<!-- generated on 2023-01-28 14:05:52 by Eclipse SUMO sumo Version 1.15.0
<configuration xmlns:xsi="http://www.w3.org/2001/XMLSchema-instance" xsi:noNamespaceSchemaLocation="http://sumo.dlr.de/xsd/sumoConfiguration.xsd">

    <input>
        <net-file value="MASA.net.xml"/>
        <route-files value="plans/plans500.rou.xml"/>
        <additional-files value="MASA.add.xml"/>
    </input>

    <output>
        <summary-output value="output/500Veh/summary.xml"/>
        <tripinfo-output value="output/500Veh/tripinfos.xml"/>
        <vehroute-output value="output/500Veh/vehroute.xml"/>
        <statistic-output value="output/500Veh/stats.xml"/>
    </output>

    <time>
        <begin value="0"/>
        <end value="86400"/>
        <step-length value="1"/>
    </time>

</configuration>
-->

<tripinfos xmlns:xsi="http://www.w3.org/2001/XMLSchema-instance" xsi:noNamespaceSchemaLocation="http://sumo.dlr.de/xsd/tripinfo_file.xsd">
    <tripinfo id="151_0" depart="22328.00" departLane="546_0" departPos="3.23" departSpeed="0.00" departDelay="0.00" arrival="22386.00" arrivalLane="548_0" arrivalPos="3.82" arrivalSpeed="3.20" duration="58.00" routeLength="209.29" waitingTime="0.00" waitingCount="0" stopTime="0.00" timeLoss="9.82" rerouteNo="1" devices="vehroute_151_0 tripinfo_151_0 routing_151_0" vType="car" speedFactor="1.06" vaporized=""/>
    <tripinfo id="200_0" depart="22788.00" departLane="32_0" departPos="5.10" departSpeed="0.00" departDelay="0.00" arrival="23057.00" arrivalLane="465_0" arrivalPos="15.99" arrivalSpeed="2.94" duration="269.00" routeLength="1115.47" waitingTime="0.00" waitingCount="0" stopTime="0.00" timeLoss="39.83" rerouteNo="1" devices="vehroute_200_0 tripinfo_200_0 routing_200_0" vType="car" speedFactor="0.94" vaporized=""/>
    <tripinfo id="124_0" depart="22817.00" departLane="479_0" departPos="5.10" departSpeed="0.00" departDelay="0.00" arrival="23083.00" arrivalLane="148_0" arrivalPos="17.95" arrivalSpeed="3.77" duration="266.00" routeLength="1009.37" waitingTime="63.00" waitingCount="2" stopTime="0.00" timeLoss="95.21" rerouteNo="1" devices="vehroute_124_0 tripinfo_124_0 routing_124_0" vType="car" speedFactor="1.01" vaporized=""/>
    <tripinfo id="195_0" depart="23929.00" departLane="51_0" departPos="5.10" departSpeed="0.00" departDelay="0.00" arrival="24136.00" arrivalLane="330_0" arrivalPos="84.41" arrivalSpeed="3.62" duration="207.00" routeLength="1016.64" waitingTime="0.00" waitingCount="0" stopTime="0.00" timeLoss="25.66" rerouteNo="1" devices="vehroute_195_0 tripinfo_195_0 routing_195_0" vType="car" speedFactor="1.08" vaporized=""/>
    <tripinfo id="70_0" depart="24318.00" departLane="348_0" departPos="5.10" departSpeed="0.00" departDelay="0.00" arrival="24546.00" arrivalLane="159_0" arrivalPos="4.92" arrivalSpeed="3.08" duration="228.00" routeLength="1261.70" waitingTime="18.00" waitingCount="1" stopTime="0.00" timeLoss="45.58" rerouteNo="1" devices="vehroute_70_0 tripinfo_70_0 routing_70_0" vType="car" speedFactor="1.03" vaporized=""/>
    <tripinfo id="39_0" depart="25430.00" departLane="439_0" departPos="5.10" departSpeed="0.00" departDelay="0.00" arrival="25733.00" arrivalLane="407_0" arrivalPos="47.89" arrivalSpeed="3.19" duration="303.00" routeLength="917.60" waitingTime="35.00" waitingCount="1" stopTime="0.00" timeLoss="83.96" rerouteNo="1" devices="vehroute_39_0 tripinfo_39_0 routing_39_0" vType="car" speedFactor="0.83" vaporized=""/>
    <tripinfo id="140_0" depart="25507.00" departLane="447_0" departPos="5.10" departSpeed="0.00" departDelay="0.00" arrival="25797.00" arrivalLane="254_0" arrivalPos="0.81" arrivalSpeed="7.99" duration="290.00" routeLength="941.02" waitingTime="41.00" waitingCount="1" stopTime="0.00" timeLoss="79.75" rerouteNo="1" devices="vehroute_140_0 tripinfo_140_0 routing_140_0" vType="car" speedFactor="1.05" vaporized=""/>
    <tripinfo id="230_0" depart="25722.00" departLane="405_0" departPos="5.10" departSpeed="0.00" departDelay="0.00" arrival="25914.00" arrivalLane="598_0" arrivalPos="0.20" arrivalSpeed="12.26" duration="192.00" routeLength="694.07" waitingTime="0.00" waitingCount="0" stopTime="0.00" timeLoss="32.89" rerouteNo="1" devices="vehroute_230_0 tripinfo_230_0 routing_230_0" vType="car" speedFactor="0.89" vaporized=""/>
    <tripinfo id="29_0" depart="25841.00" departLane="138_0" departPos="5.10" departSpeed="0.00" departDelay="0.00" arrival="25963.00" arrivalLane="579_0" arrivalPos="3.82" arrivalSpeed="6.10" duration="122.00" routeLength="455.90" waitingTime="0.00" waitingCount="0" stopTime="0.00" timeLoss="20.44" rerouteNo="1" devices="vehroute_29_0 tripinfo_29_0 routing_29_0" vType="car" speedFactor="0.94" vaporized=""/>
    <tripinfo id="96_0" depart="26428.00" departLane="52_0" departPos="5.10" departSpeed="0.00" departDelay="0.00" arrival="26682.00" arrivalLane="541_0" arrivalPos="2.94" arrivalSpeed="2.98" duration="254.00" routeLength="805.79" waitingTime="0.00" waitingCount="0" stopTime="0.00" timeLoss="43.34" rerouteNo="1" devices="vehroute_96_0 tripinfo_96_0 routing_96_0" vType="car" speedFactor="0.86" vaporized=""/>
    <tripinfo id="163_0" depart="26705.00" departLane="213_0" departPos="5.10" departSpeed="0.00" departDelay="0.00" arrival="26846.00" arrivalLane="194_0" arrivalPos="59.34" arrivalSpeed="3.55" duration="141.00" routeLength="1066.51" waitingTime="0.00" waitingCount="0" stopTime="0.00" timeLoss="19.98" rerouteNo="1" devices="vehroute_163_0 tripinfo_163_0 routing_163_0" vType="car" speedFactor="1.09" vaporized=""/>
    <tripinfo id="31_0" depart="27015.00" departLane="353_0" departPos="5.10" departSpeed="0.00" departDelay="0.00" arrival="27069.00" arrivalLane="187_0" arrivalPos="4.52" arrivalSpeed="7.62" duration="54.00" routeLength="419.54" waitingTime="0.00" waitingCount="0" stopTime="0.00" timeLoss="5.81" rerouteNo="1" devices="vehroute_31_0 tripinfo_31_0 routing_31_0" vType="car" speedFactor="1.05" vaporized=""/>
    <tripinfo id="134_0" depart="27005.00" departLane="613_0" departPos="5.10" departSpeed="0.00" departDelay="0.00" arrival="27180.00" arrivalLane="5_0" arrivalPos="0.92" arrivalSpeed="4.22" duration="175.00" routeLength="1060.89" waitingTime="0.00" waitingCount="0" stopTime="0.00" timeLoss="20.25" rerouteNo="1" devices="vehroute_134_0 tripinfo_134_0 routing_134_0" vType="car" speedFactor="1.03" vaporized=""/>
    <tripinfo id="221_0" depart="27233.00" departLane="116_0" departPos="5.10" departSpeed="0.00" departDelay="0.00" arrival="27344.00" arrivalLane="436_0" arrivalPos="9.36" arrivalSpeed="4.21" duration="111.00" routeLength="589.89" waitingTime="0.00" waitingCount="0" stopTime="0.00" timeLoss="15.22" rerouteNo="1" devices="vehroute_221_0 tripinfo_221_0 routing_221_0" vType="car" speedFactor="1.12" vaporized=""/>
    <tripinfo id="50_0" depart="27325.00" departLane="309_0" departPos="0.20" departSpeed="0.00" departDelay="0.00" arrival="27496.00" arrivalLane="540_0" arrivalPos="3.16" arrivalSpeed="3.79" duration="171.00" routeLength="645.66" waitingTime="20.00" waitingCount="1" stopTime="0.00" timeLoss="46.19" rerouteNo="1" devices="vehroute_50_0 tripinfo_50_0 routing_50_0" vType="car" speedFactor="0.99" vaporized=""/>
    <tripinfo id="243_0" depart="27326.00" departLane="165_0" departPos="4.92" departSpeed="0.00" departDelay="0.00" arrival="27522.00" arrivalLane="622_0" arrivalPos="88.04" arrivalSpeed="5.94" duration="196.00" routeLength="784.52" waitingTime="22.00" waitingCount="1" stopTime="0.00" timeLoss="49.69" rerouteNo="1" devices="vehroute_243_0 tripinfo_243_0 routing_243_0" vType="car" speedFactor="0.93" vaporized=""/>
    <tripinfo id="198_0" depart="27378.00" departLane="279_0" departPos="5.10" departSpeed="0.00" departDelay="0.00" arrival="27631.00" arrivalLane="133_0" arrivalPos="12.92" arrivalSpeed="2.42" duration="253.00" routeLength="1244.48" waitingTime="0.00" waitingCount="0" stopTime="0.00" timeLoss="41.47" rerouteNo="1" devices="vehroute_198_0 tripinfo_198_0 routing_198_0" vType="car" speedFactor="0.88" vaporized=""/>
    <tripinfo id="187_0" depart="27455.00" departLane="407_0" departPos="5.10" departSpeed="0.00" departDelay="0.00" arrival="27721.00" arrivalLane="546_0" arrivalPos="3.23" arrivalSpeed="3.91" duration="266.00" routeLength="733.34" waitingTime="54.00" waitingCount="2" stopTime="0.00" timeLoss="92.83" rerouteNo="1" devices="vehroute_187_0 tripinfo_187_0 routing_187_0" vType="car" speedFactor="0.94" vaporized=""/>
    <tripinfo id="238_0" depart="27747.00" departLane="413_0" departPos="5.10" departSpeed="0.00" departDelay="0.00" arrival="27806.00" arrivalLane="618_0" arrivalPos="90.00" arrivalSpeed="6.80" duration="59.00" routeLength="297.97" waitingTime="8.00" waitingCount="1" stopTime="0.00" timeLoss="17.22" rerouteNo="1" devices="vehroute_238_0 tripinfo_238_0 routing_238_0" vType="car" speedFactor="1.02" vaporized=""/>
    <tripinfo id="220_0" depart="27715.00" departLane="621_0" departPos="5.10" departSpeed="0.00" departDelay="0.00" arrival="27836.00" arrivalLane="475_0" arrivalPos="0.20" arrivalSpeed="4.39" duration="121.00" routeLength="958.77" waitingTime="0.00" waitingCount="0" stopTime="0.00" timeLoss="16.24" rerouteNo="1" devices="vehroute_220_0 tripinfo_220_0 routing_220_0" vType="car" speedFactor="1.16" vaporized=""/>
    <tripinfo id="248_0" depart="27619.00" departLane="254_0" departPos="0.81" departSpeed="0.00" departDelay="0.00" arrival="27868.00" arrivalLane="372_0" arrivalPos="6.12" arrivalSpeed="5.68" duration="249.00" routeLength="1309.27" waitingTime="42.00" waitingCount="1" stopTime="0.00" timeLoss="65.48" rerouteNo="1" devices="vehroute_248_0 tripinfo_248_0 routing_248_0" vType="car" speedFactor="0.94" vaporized=""/>
    <tripinfo id="16_0" depart="27763.00" departLane="206_0" departPos="5.10" departSpeed="0.00" departDelay="0.00" arrival="27945.00" arrivalLane="351_0" arrivalPos="28.70" arrivalSpeed="7.63" duration="182.00" routeLength="2103.52" waitingTime="0.00" waitingCount="0" stopTime="0.00" timeLoss="18.22" rerouteNo="1" devices="vehroute_16_0 tripinfo_16_0 routing_16_0" vType="car" speedFactor="1.01" vaporized=""/>
    <tripinfo id="48_0" depart="27850.00" departLane="333_0" departPos="5.06" departSpeed="0.00" departDelay="0.00" arrival="28104.00" arrivalLane="175_0" arrivalPos="117.52" arrivalSpeed="7.46" duration="254.00" routeLength="1271.41" waitingTime="32.00" waitingCount="1" stopTime="0.00" timeLoss="59.60" rerouteNo="1" devices="vehroute_48_0 tripinfo_48_0 routing_48_0" vType="car" speedFactor="0.97" vaporized=""/>
    <tripinfo id="84_0" depart="27883.00" departLane="534_0" departPos="5.10" departSpeed="0.00" departDelay="0.00" arrival="28275.00" arrivalLane="47_0" arrivalPos="1.70" arrivalSpeed="3.26" duration="392.00" routeLength="1101.58" waitingTime="51.00" waitingCount="3" stopTime="0.00" timeLoss="111.18" rerouteNo="1" devices="vehroute_84_0 tripinfo_84_0 routing_84_0" vType="car" speedFactor="0.89" vaporized=""/>
    <tripinfo id="202_0" depart="28215.00" departLane="304_0" departPos="5.10" departSpeed="0.00" departDelay="0.00" arrival="28284.00" arrivalLane="114_0" arrivalPos="43.14" arrivalSpeed="2.85" duration="69.00" routeLength="328.96" waitingTime="0.00" waitingCount="0" stopTime="0.00" timeLoss="9.66" rerouteNo="1" devices="vehroute_202_0 tripinfo_202_0 routing_202_0" vType="car" speedFactor="0.83" vaporized=""/>
    <tripinfo id="12_0" depart="28475.00" departLane="345_0" departPos="5.10" departSpeed="0.00" departDelay="0.00" arrival="28694.00" arrivalLane="209_0" arrivalPos="23.96" arrivalSpeed="12.08" duration="219.00" routeLength="1855.95" waitingTime="0.00" waitingCount="0" stopTime="0.00" timeLoss="24.26" rerouteNo="1" devices="vehroute_12_0 tripinfo_12_0 routing_12_0" vType="car" speedFactor="0.92" vaporized=""/>
    <tripinfo id="110_0" depart="28322.00" departLane="344_0" departPos="5.10" departSpeed="0.00" departDelay="0.00" arrival="28741.00" arrivalLane="129_0" arrivalPos="169.57" arrivalSpeed="3.09" duration="419.00" routeLength="1352.70" waitingTime="0.00" waitingCount="0" stopTime="0.00" timeLoss="74.36" rerouteNo="1" devices="vehroute_110_0 tripinfo_110_0 routing_110_0" vType="car" speedFactor="0.87" vaporized=""/>
    <tripinfo id="213_0" depart="28634.00" departLane="370_0" departPos="4.66" departSpeed="0.00" departDelay="0.00" arrival="28742.00" arrivalLane="458_0" arrivalPos="31.53" arrivalSpeed="2.75" duration="108.00" routeLength="536.57" waitingTime="0.00" waitingCount="0" stopTime="0.00" timeLoss="15.31" rerouteNo="1" devices="vehroute_213_0 tripinfo_213_0 routing_213_0" vType="car" speedFactor="0.95" vaporized=""/>
    <tripinfo id="104_0" depart="28728.00" departLane="109_0" departPos="3.55" departSpeed="0.00" departDelay="0.00" arrival="28784.00" arrivalLane="91_0" arrivalPos="7.38" arrivalSpeed="4.11" duration="56.00" routeLength="255.08" waitingTime="0.00" waitingCount="0" stopTime="0.00" timeLoss="11.06" rerouteNo="1" devices="vehroute_104_0 tripinfo_104_0 routing_104_0" vType="car" speedFactor="1.18" vaporized=""/>
    <tripinfo id="105_0" depart="28646.00" departLane="596_0" departPos="1.53" departSpeed="0.00" departDelay="0.00" arrival="28787.00" arrivalLane="133_0" arrivalPos="12.92" arrivalSpeed="3.59" duration="141.00" routeLength="922.64" waitingTime="0.00" waitingCount="0" stopTime="0.00" timeLoss="19.39" rerouteNo="1" devices="vehroute_105_0 tripinfo_105_0 routing_105_0" vType="car" speedFactor="1.13" vaporized=""/>
    <tripinfo id="185_0" depart="28886.00" departLane="90_0" departPos="1.65" departSpeed="0.00" departDelay="0.00" arrival="28894.00" arrivalLane="95_0" arrivalPos="3.05" arrivalSpeed="3.40" duration="8.00" routeLength="22.84" waitingTime="0.00" waitingCount="0" stopTime="0.00" timeLoss="1.93" rerouteNo="1" devices="vehroute_185_0 tripinfo_185_0 routing_185_0" vType="car" speedFactor="1.02" vaporized=""/>
    <tripinfo id="135_0" depart="28802.00" departLane="439_0" departPos="5.10" departSpeed="0.00" departDelay="0.00" arrival="28897.00" arrivalLane="429_0" arrivalPos="3.81" arrivalSpeed="4.04" duration="95.00" routeLength="453.80" waitingTime="0.00" waitingCount="0" stopTime="0.00" timeLoss="13.17" rerouteNo="1" devices="vehroute_135_0 tripinfo_135_0 routing_135_0" vType="car" speedFactor="1.15" vaporized=""/>
    <tripinfo id="207_0" depart="28882.00" departLane="508_0" departPos="5.10" departSpeed="0.00" departDelay="0.00" arrival="28918.00" arrivalLane="91_0" arrivalPos="7.38" arrivalSpeed="4.02" duration="36.00" routeLength="277.18" waitingTime="0.00" waitingCount="0" stopTime="0.00" timeLoss="11.67" rerouteNo="1" devices="vehroute_207_0 tripinfo_207_0 routing_207_0" vType="car" speedFactor="0.99" vaporized=""/>
    <tripinfo id="211_0" depart="28718.00" departLane="251_0" departPos="0.20" departSpeed="0.00" departDelay="0.00" arrival="28921.00" arrivalLane="396_0" arrivalPos="56.33" arrivalSpeed="3.84" duration="203.00" routeLength="644.73" waitingTime="14.00" waitingCount="1" stopTime="0.00" timeLoss="46.32" rerouteNo="1" devices="vehroute_211_0 tripinfo_211_0 routing_211_0" vType="car" speedFactor="0.93" vaporized=""/>
    <tripinfo id="181_0" depart="28840.00" departLane="23_0" departPos="5.10" departSpeed="0.00" departDelay="0.00" arrival="28950.00" arrivalLane="576_0" arrivalPos="0.20" arrivalSpeed="4.20" duration="110.00" routeLength="899.33" waitingTime="0.00" waitingCount="0" stopTime="0.00" timeLoss="9.53" rerouteNo="1" devices="vehroute_181_0 tripinfo_181_0 routing_181_0" vType="car" speedFactor="1.17" vaporized=""/>
    <tripinfo id="199_0" depart="28819.00" departLane="16_0" departPos="0.20" departSpeed="0.00" departDelay="0.00" arrival="28970.00" arrivalLane="586_0" arrivalPos="18.98" arrivalSpeed="7.13" duration="151.00" routeLength="751.02" waitingTime="46.00" waitingCount="1" stopTime="0.00" timeLoss="59.31" rerouteNo="1" devices="vehroute_199_0 tripinfo_199_0 routing_199_0" vType="car" speedFactor="1.01" vaporized=""/>
    <tripinfo id="23_0" depart="28957.00" departLane="340_0" departPos="5.10" departSpeed="0.00" departDelay="0.00" arrival="29011.00" arrivalLane="610_0" arrivalPos="14.54" arrivalSpeed="7.27" duration="54.00" routeLength="387.14" waitingTime="0.00" waitingCount="0" stopTime="0.00" timeLoss="5.63" rerouteNo="1" devices="vehroute_23_0 tripinfo_23_0 routing_23_0" vType="car" speedFactor="0.97" vaporized=""/>
    <tripinfo id="128_0" depart="28973.00" departLane="388_0" departPos="0.20" departSpeed="0.00" departDelay="0.00" arrival="29091.00" arrivalLane="258_0" arrivalPos="3.33" arrivalSpeed="8.80" duration="118.00" routeLength="596.54" waitingTime="45.00" waitingCount="1" stopTime="0.00" timeLoss="56.13" rerouteNo="1" devices="vehroute_128_0 tripinfo_128_0 routing_128_0" vType="car" speedFactor="1.18" vaporized=""/>
    <tripinfo id="180_0" depart="29033.00" departLane="401_0" departPos="5.10" departSpeed="0.00" departDelay="0.00" arrival="29170.00" arrivalLane="90_0" arrivalPos="1.65" arrivalSpeed="4.54" duration="137.00" routeLength="564.85" waitingTime="0.00" waitingCount="0" stopTime="0.00" timeLoss="20.86" rerouteNo="1" devices="vehroute_180_0 tripinfo_180_0 routing_180_0" vType="car" speedFactor="1.10" vaporized=""/>
    <tripinfo id="176_0" depart="29043.00" departLane="465_0" departPos="5.10" departSpeed="0.00" departDelay="0.00" arrival="29204.00" arrivalLane="618_0" arrivalPos="90.00" arrivalSpeed="5.59" duration="161.00" routeLength="570.13" waitingTime="30.00" waitingCount="1" stopTime="0.00" timeLoss="51.58" rerouteNo="1" devices="vehroute_176_0 tripinfo_176_0 routing_176_0" vType="car" speedFactor="0.90" vaporized=""/>
    <tripinfo id="119_0" depart="29152.00" departLane="385_0" departPos="5.08" departSpeed="0.00" departDelay="0.00" arrival="29240.00" arrivalLane="522_0" arrivalPos="41.54" arrivalSpeed="13.26" duration="88.00" routeLength="541.54" waitingTime="1.00" waitingCount="1" stopTime="0.00" timeLoss="13.05" rerouteNo="1" devices="vehroute_119_0 tripinfo_119_0 routing_119_0" vType="car" speedFactor="1.04" vaporized=""/>
    <tripinfo id="87_0" depart="29091.00" departLane="407_0" departPos="5.10" departSpeed="0.00" departDelay="0.00" arrival="29271.00" arrivalLane="598_0" arrivalPos="0.20" arrivalSpeed="13.11" duration="180.00" routeLength="747.57" waitingTime="0.00" waitingCount="0" stopTime="0.00" timeLoss="30.17" rerouteNo="1" devices="vehroute_87_0 tripinfo_87_0 routing_87_0" vType="car" speedFactor="1.03" vaporized=""/>
    <tripinfo id="233_0" depart="29129.00" departLane="413_0" departPos="5.10" departSpeed="0.00" departDelay="0.00" arrival="29309.00" arrivalLane="7_0" arrivalPos="67.72" arrivalSpeed="4.55" duration="180.00" routeLength="1122.82" waitingTime="0.00" waitingCount="0" stopTime="0.00" timeLoss="19.16" rerouteNo="1" devices="vehroute_233_0 tripinfo_233_0 routing_233_0" vType="car" speedFactor="1.09" vaporized=""/>
    <tripinfo id="249_0" depart="29180.00" departLane="32_0" departPos="5.10" departSpeed="0.00" departDelay="0.00" arrival="29337.00" arrivalLane="68_0" arrivalPos="0.20" arrivalSpeed="4.18" duration="157.00" routeLength="1007.76" waitingTime="0.00" waitingCount="0" stopTime="0.00" timeLoss="17.86" rerouteNo="1" devices="vehroute_249_0 tripinfo_249_0 routing_249_0" vType="car" speedFactor="1.04" vaporized=""/>
    <tripinfo id="90_0" depart="29288.00" departLane="257_0" departPos="3.31" departSpeed="0.00" departDelay="2.00" arrival="29385.00" arrivalLane="621_0" arrivalPos="88.04" arrivalSpeed="7.06" duration="97.00" routeLength="898.68" waitingTime="0.00" waitingCount="0" stopTime="0.00" timeLoss="13.45" rerouteNo="1" devices="vehroute_90_0 tripinfo_90_0 routing_90_0" vType="car" speedFactor="1.09" vaporized=""/>
    <tripinfo id="235_0" depart="29119.00" departLane="452_0" departPos="5.10" departSpeed="0.00" departDelay="0.00" arrival="29440.00" arrivalLane="425_0" arrivalPos="63.58" arrivalSpeed="2.97" duration="321.00" routeLength="1292.46" waitingTime="0.00" waitingCount="0" stopTime="0.00" timeLoss="48.82" rerouteNo="1" devices="vehroute_235_0 tripinfo_235_0 routing_235_0" vType="car" speedFactor="0.96" vaporized=""/>
    <tripinfo id="222_0" depart="29350.00" departLane="372_0" departPos="5.10" departSpeed="0.00" departDelay="0.00" arrival="29478.00" arrivalLane="265_0" arrivalPos="1.24" arrivalSpeed="8.30" duration="128.00" routeLength="909.06" waitingTime="0.00" waitingCount="0" stopTime="0.00" timeLoss="12.05" rerouteNo="1" devices="vehroute_222_0 tripinfo_222_0 routing_222_0" vType="car" speedFactor="1.00" vaporized=""/>
    <tripinfo id="41_0" depart="29565.00" departLane="66_0" departPos="0.79" departSpeed="0.00" departDelay="0.00" arrival="29612.00" arrivalLane="242_0" arrivalPos="0.39" arrivalSpeed="6.73" duration="47.00" routeLength="289.06" waitingTime="0.00" waitingCount="0" stopTime="0.00" timeLoss="5.03" rerouteNo="1" devices="vehroute_41_0 tripinfo_41_0 routing_41_0" vType="car" speedFactor="0.85" vaporized=""/>
    <tripinfo id="55_0" depart="29652.00" departLane="66_0" departPos="0.79" departSpeed="0.00" departDelay="0.00" arrival="29679.00" arrivalLane="259_0" arrivalPos="0.20" arrivalSpeed="7.27" duration="27.00" routeLength="179.48" waitingTime="2.00" waitingCount="1" stopTime="0.00" timeLoss="5.15" rerouteNo="1" devices="vehroute_55_0 tripinfo_55_0 routing_55_0" vType="car" speedFactor="1.02" vaporized=""/>
    <tripinfo id="60_0" depart="29429.00" departLane="270_0" departPos="0.10" departSpeed="0.00" departDelay="0.00" arrival="29698.00" arrivalLane="562_0" arrivalPos="57.03" arrivalSpeed="2.53" duration="269.00" routeLength="800.64" waitingTime="0.00" waitingCount="0" stopTime="0.00" timeLoss="50.21" rerouteNo="1" devices="vehroute_60_0 tripinfo_60_0 routing_60_0" vType="car" speedFactor="0.88" vaporized=""/>
    <tripinfo id="171_0" depart="29609.00" departLane="485_0" departPos="5.10" departSpeed="0.00" departDelay="0.00" arrival="29700.00" arrivalLane="524_0" arrivalPos="47.97" arrivalSpeed="10.62" duration="91.00" routeLength="729.71" waitingTime="0.00" waitingCount="0" stopTime="0.00" timeLoss="14.32" rerouteNo="1" devices="vehroute_171_0 tripinfo_171_0 routing_171_0" vType="car" speedFactor="0.85" vaporized=""/>
    <tripinfo id="73_0" depart="29658.00" departLane="195_0" departPos="2.68" departSpeed="0.00" departDelay="0.00" arrival="29727.00" arrivalLane="108_0" arrivalPos="50.95" arrivalSpeed="4.05" duration="69.00" routeLength="316.96" waitingTime="0.00" waitingCount="0" stopTime="0.00" timeLoss="10.06" rerouteNo="1" devices="vehroute_73_0 tripinfo_73_0 routing_73_0" vType="car" speedFactor="1.00" vaporized=""/>
    <tripinfo id="179_0" depart="29351.00" departLane="208_0" departPos="5.10" departSpeed="0.00" departDelay="0.00" arrival="29760.00" arrivalLane="48_0" arrivalPos="80.53" arrivalSpeed="3.27" duration="409.00" routeLength="2634.65" waitingTime="0.00" waitingCount="0" stopTime="0.00" timeLoss="50.85" rerouteNo="1" devices="vehroute_179_0 tripinfo_179_0 routing_179_0" vType="car" speedFactor="0.90" vaporized=""/>
    <tripinfo id="157_0" depart="29655.00" departLane="307_0" departPos="0.20" departSpeed="0.00" departDelay="0.00" arrival="29831.00" arrivalLane="343_0" arrivalPos="50.38" arrivalSpeed="8.02" duration="176.00" routeLength="691.57" waitingTime="39.00" waitingCount="1" stopTime="0.00" timeLoss="67.49" rerouteNo="1" devices="vehroute_157_0 tripinfo_157_0 routing_157_0" vType="car" speedFactor="1.10" vaporized=""/>
    <tripinfo id="168_0" depart="29674.00" departLane="420_0" departPos="5.10" departSpeed="0.00" departDelay="0.00" arrival="29881.00" arrivalLane="101_0" arrivalPos="53.56" arrivalSpeed="3.21" duration="207.00" routeLength="872.80" waitingTime="0.00" waitingCount="0" stopTime="0.00" timeLoss="29.46" rerouteNo="1" devices="vehroute_168_0 tripinfo_168_0 routing_168_0" vType="car" speedFactor="1.00" vaporized=""/>
    <tripinfo id="225_0" depart="29640.00" departLane="397_0" departPos="5.10" departSpeed="0.00" departDelay="0.00" arrival="29891.00" arrivalLane="373_0" arrivalPos="6.12" arrivalSpeed="8.08" duration="251.00" routeLength="1436.96" waitingTime="2.00" waitingCount="1" stopTime="0.00" timeLoss="41.50" rerouteNo="1" devices="vehroute_225_0 tripinfo_225_0 routing_225_0" vType="car" speedFactor="1.17" vaporized=""/>
    <tripinfo id="45_0" depart="29682.00" departLane="468_0" departPos="5.10" departSpeed="0.00" departDelay="0.00" arrival="29893.00" arrivalLane="329_0" arrivalPos="84.41" arrivalSpeed="4.45" duration="211.00" routeLength="1074.93" waitingTime="0.00" waitingCount="0" stopTime="0.00" timeLoss="28.75" rerouteNo="1" devices="vehroute_45_0 tripinfo_45_0 routing_45_0" vType="car" speedFactor="1.14" vaporized=""/>
    <tripinfo id="214_0" depart="29682.00" departLane="514_0" departPos="5.10" departSpeed="0.00" departDelay="0.00" arrival="29906.00" arrivalLane="501_0" arrivalPos="3.70" arrivalSpeed="2.68" duration="224.00" routeLength="1153.64" waitingTime="44.00" waitingCount="1" stopTime="0.00" timeLoss="67.32" rerouteNo="1" devices="vehroute_214_0 tripinfo_214_0 routing_214_0" vType="car" speedFactor="0.90" vaporized=""/>
    <tripinfo id="169_0" depart="29878.00" departLane="291_0" departPos="0.20" departSpeed="0.00" departDelay="0.00" arrival="29944.00" arrivalLane="566_0" arrivalPos="9.83" arrivalSpeed="7.83" duration="66.00" routeLength="535.75" waitingTime="0.00" waitingCount="0" stopTime="0.00" timeLoss="7.39" rerouteNo="1" devices="vehroute_169_0 tripinfo_169_0 routing_169_0" vType="car" speedFactor="1.12" vaporized=""/>
    <tripinfo id="143_0" depart="29764.00" departLane="428_0" departPos="5.10" departSpeed="0.00" departDelay="0.00" arrival="29979.00" arrivalLane="207_0" arrivalPos="12.98" arrivalSpeed="12.90" duration="215.00" routeLength="1875.42" waitingTime="0.00" waitingCount="0" stopTime="0.00" timeLoss="22.69" rerouteNo="1" devices="vehroute_143_0 tripinfo_143_0 routing_143_0" vType="car" speedFactor="0.97" vaporized=""/>
    <tripinfo id="49_0" depart="29934.00" departLane="543_0" departPos="3.75" departSpeed="0.00" departDelay="0.00" arrival="30009.00" arrivalLane="250_0" arrivalPos="1.22" arrivalSpeed="8.21" duration="75.00" routeLength="472.20" waitingTime="0.00" waitingCount="0" stopTime="0.00" timeLoss="8.61" rerouteNo="1" devices="vehroute_49_0 tripinfo_49_0 routing_49_0" vType="car" speedFactor="1.02" vaporized=""/>
    <tripinfo id="121_0" depart="29814.00" departLane="404_0" departPos="5.10" departSpeed="0.00" departDelay="0.00" arrival="30038.00" arrivalLane="246_0" arrivalPos="78.01" arrivalSpeed="3.71" duration="224.00" routeLength="1089.72" waitingTime="0.00" waitingCount="0" stopTime="0.00" timeLoss="29.36" rerouteNo="1" devices="vehroute_121_0 tripinfo_121_0 routing_121_0" vType="car" speedFactor="1.08" vaporized=""/>
    <tripinfo id="227_0" depart="29973.00" departLane="549_0" departPos="1.89" departSpeed="0.00" departDelay="0.00" arrival="30071.00" arrivalLane="352_0" arrivalPos="10.85" arrivalSpeed="7.76" duration="98.00" routeLength="266.40" waitingTime="47.00" waitingCount="1" stopTime="0.00" timeLoss="56.12" rerouteNo="1" devices="vehroute_227_0 tripinfo_227_0 routing_227_0" vType="car" speedFactor="0.99" vaporized=""/>
    <tripinfo id="46_0" depart="30045.00" departLane="523_0" departPos="5.10" departSpeed="0.00" departDelay="0.00" arrival="30094.00" arrivalLane="621_0" arrivalPos="88.04" arrivalSpeed="6.09" duration="49.00" routeLength="282.30" waitingTime="0.00" waitingCount="0" stopTime="0.00" timeLoss="8.33" rerouteNo="1" devices="vehroute_46_0 tripinfo_46_0 routing_46_0" vType="car" speedFactor="0.88" vaporized=""/>
    <tripinfo id="164_0" depart="29734.00" departLane="311_0" departPos="5.10" departSpeed="0.00" departDelay="0.00" arrival="30113.00" arrivalLane="143_0" arrivalPos="8.78" arrivalSpeed="3.61" duration="379.00" routeLength="1820.90" waitingTime="0.00" waitingCount="0" stopTime="0.00" timeLoss="59.50" rerouteNo="1" devices="vehroute_164_0 tripinfo_164_0 routing_164_0" vType="car" speedFactor="1.02" vaporized=""/>
    <tripinfo id="53_0" depart="30103.00" departLane="259_0" departPos="0.20" departSpeed="0.00" departDelay="0.00" arrival="30193.00" arrivalLane="112_0" arrivalPos="1.36" arrivalSpeed="3.95" duration="90.00" routeLength="418.06" waitingTime="14.00" waitingCount="2" stopTime="0.00" timeLoss="32.14" rerouteNo="1" devices="vehroute_53_0 tripinfo_53_0 routing_53_0" vType="car" speedFactor="1.04" vaporized=""/>
    <tripinfo id="112_0" depart="30019.00" departLane="23_0" departPos="5.10" departSpeed="0.00" departDelay="0.00" arrival="30235.00" arrivalLane="451_0" arrivalPos="82.80" arrivalSpeed="3.52" duration="216.00" routeLength="1129.83" waitingTime="12.00" waitingCount="1" stopTime="0.00" timeLoss="39.32" rerouteNo="1" devices="vehroute_112_0 tripinfo_112_0 routing_112_0" vType="car" speedFactor="0.94" vaporized=""/>
    <tripinfo id="126_0" depart="30096.00" departLane="611_0" departPos="5.10" departSpeed="0.00" departDelay="0.00" arrival="30338.00" arrivalLane="153_0" arrivalPos="49.43" arrivalSpeed="3.30" duration="242.00" routeLength="1164.20" waitingTime="14.00" waitingCount="1" stopTime="0.00" timeLoss="45.50" rerouteNo="1" devices="vehroute_126_0 tripinfo_126_0 routing_126_0" vType="car" speedFactor="0.91" vaporized=""/>
    <tripinfo id="166_0" depart="30103.00" departLane="132_0" departPos="5.10" departSpeed="0.00" departDelay="0.00" arrival="30354.00" arrivalLane="494_0" arrivalPos="100.42" arrivalSpeed="3.11" duration="251.00" routeLength="903.51" waitingTime="3.00" waitingCount="1" stopTime="0.00" timeLoss="44.38" rerouteNo="1" devices="vehroute_166_0 tripinfo_166_0 routing_166_0" vType="car" speedFactor="0.91" vaporized=""/>