<?xml version="1.0" encoding="UTF-8"?>

<!-- generated on 2023-01-28 14:05:52 by Eclipse SUMO sumo Version 1.15.0
<configuration xmlns:xsi="http://www.w3.org/2001/XMLSchema-instance" xsi:noNamespaceSchemaLocation="http://sumo.dlr.de/xsd/sumoConfiguration.xsd">

    <input>
        <net-file value="MASA.net.xml"/>
        <route-files value="plans/plans500.rou.xml"/>
        <additional-files value="MASA.add.xml"/>
    </input>

    <output>
        <summary-output value="output/500Veh/summary.xml"/>
        <tripinfo-output value="output/500Veh/tripinfos.xml"/>
        <vehroute-output value="output/500Veh/vehroute.xml"/>
        <statistic-output value="output/500Veh/stats.xml"/>
    </output>

    <time>
        <begin value="0"/>
        <end value="86400"/>
        <step-length value="1"/>
    </time>

</configuration>
-->

<routes xmlns:xsi="http://www.w3.org/2001/XMLSchema-instance" xsi:noNamespaceSchemaLocation="http://sumo.dlr.de/xsd/routes_file.xsd">
    <vehicle id="151_0" type="car" depart="22328.00" arrival="22386.00">
        <route edges="546 544 542 540 538 536 535 537 539 541 543 545 547 549 111 113 115 117 119 121 122 120 118 116 114 112 550 548"/>
    </vehicle>

    <vehicle id="200_0" type="car" depart="22788.00" arrival="23057.00">
        <route edges="32 30 29 31 442 443 185 186 187 387 388 389 390 413 579 580 581 582 583 584 586 588 452 454 456 458 460 462 464 466 468 470 471 469 467 465"/>
    </vehicle>

    <vehicle id="124_0" type="car" depart="22817.00" arrival="23083.00">
        <route edges="479 62 64 66 347 345 343 341 339 240 241 242 177 178 179 180 181 182 183 184 185 186 187 387 388 389 390 413 97 99 613 615 617 130 132 134 136 138 140 142 144 146 148"/>
    </vehicle>

    <vehicle id="195_0" type="car" depart="23929.00" arrival="24136.00">
        <route edges="51 49 47 10 8 6 4 2 17 19 21 23 420 421 422 330"/>
    </vehicle>

    <vehicle id="70_0" type="car" depart="24318.00" arrival="24546.00">
        <route edges="348 350 352 354 356 609 610 611 612 255 256 257 258 259 260 261 262 263 264 265 266 267 268 269 270 271 272 273 274 249 250 604 605 606 607 608 357 355 353 351 349 347 345 343 341 339 240 241 242 177 178 179 180 181 182 183 184 185 186 187 387 388 389 390 413 579 580 581 582 583 584 586 491 493 152 154 155 156 157 158 159"/>
    </vehicle>

    <vehicle id="39_0" type="car" depart="25430.00" arrival="25733.00">
        <route edges="439 437 435 433 385 291 292 293 294 295 408 409 410 338 340 342 344 346 67 65 63 61 59 57 407"/>
    </vehicle>

    <vehicle id="140_0" type="car" depart="25507.00" arrival="25797.00">
        <route edges="447 446 448 450 280 278 276 13 14 15 16 270 271 272 273 274 249 250 251 252 253 254"/>
    </vehicle>

    <vehicle id="230_0" type="car" depart="25722.00" arrival="25914.00">
        <route edges="405 403 192 193 194 195 196 197 249 250 251 252 253 254 255 576 577 578 590 592 594 596 598"/>
    </vehicle>

    <vehicle id="29_0" type="car" depart="25841.00" arrival="25963.00">
        <route edges="138 140 142 144 146 148 149 147 145 143 141 139 137 135 133 131 618 497 498 499 500 579"/>
    </vehicle>

    <vehicle id="96_0" type="car" depart="26428.00" arrival="26682.00">
        <route edges="52 54 56 58 60 62 64 66 347 122 120 118 116 114 112 550 548 546 544 542 540 538 536 535 537 539 541"/>
    </vehicle>

    <vehicle id="163_0" type="car" depart="26705.00" arrival="26846.00">
        <route edges="213 211 209 207 205 603 601 530 528 526 524 522 520 518 516 514 512 510 599 597 595 593 591 472 473 474 260 261 262 263 264 265 266 267 268 269 270 307 308 309 310 110 193 194"/>
    </vehicle>

    <vehicle id="31_0" type="car" depart="27015.00" arrival="27069.00">
        <route edges="353 351 349 347 345 343 341 339 240 241 242 177 178 179 180 181 182 183 184 185 186 187"/>
    </vehicle>

    <vehicle id="134_0" type="car" depart="27005.00" arrival="27180.00">
        <route edges="613 615 497 498 499 500 414 569 570 571 287 288 289 290 291 292 293 294 295 555 556 557 177 178 179 481 482 483 32 30 28 26 24 22 20 18 1 3 5"/>
    </vehicle>

    <vehicle id="221_0" type="car" depart="27233.00" arrival="27344.00">
        <route edges="116 114 112 550 548 546 544 542 540 538 536 535 537 539 541 543 545 547 549 111 113 115 117 119 121 345 343 341 339 240 241 242 177 178 179 180 181 182 183 184 185 186 187 303 304 305 306 287 288 384 432 434 436"/>
    </vehicle>

    <vehicle id="50_0" type="car" depart="27325.00" arrival="27496.00">
        <route edges="309 310 110 193 194 195 196 197 249 250 604 605 606 607 608 357 355 353 351 349 347 122 120 118 116 114 112 550 548 546 544 542 540"/>
    </vehicle>

    <vehicle id="243_0" type="car" depart="27326.00" arrival="27522.00">
        <route edges="165 166 153 494 492 587 585 627 629 613 615 617 619 621 623 625 626 624 622"/>
    </vehicle>

    <vehicle id="198_0" type="car" depart="27378.00" arrival="27631.00">
        <route edges="279 280 278 276 13 14 15 16 270 271 272 273 274 249 250 251 252 253 254 255 576 577 578 590 592 594 596 598 509 511 513 515 517 519 521 523 525 527 529 626 624 622 620 130 132 134 136 138 140 142 144 146 148 149 147 145 143 141 139 137 135 133"/>
    </vehicle>

    <vehicle id="187_0" type="car" depart="27455.00" arrival="27721.00">
        <route edges="407 406 56 58 60 62 64 66 347 122 120 118 116 114 112 550 548 546"/>
    </vehicle>

    <vehicle id="238_0" type="car" depart="27747.00" arrival="27806.00">
        <route edges="413 97 99 613 615 617 618"/>
    </vehicle>

    <vehicle id="220_0" type="car" depart="27715.00" arrival="27836.00">
        <route edges="621 623 625 530 528 526 524 522 520 518 516 514 512 510 599 597 595 593 591 472 473 474 260 261 262 263 264 265 266 267 268 269 270 307 308 309 310 110 193 475"/>
    </vehicle>

    <vehicle id="248_0" type="car" depart="27619.00" arrival="27868.00">
        <route edges="254 255 256 257 258 259 260 261 262 263 264 265 266 267 268 269 270 271 272 273 274 249 250 604 605 606 607 608 357 355 353 351 349 347 345 343 341 339 240 241 242 177 178 179 180 181 182 183 184 185 186 187 387 388 389 390 413 97 99 383 381 379 377 375 373 371 369 367 365 363 361 359 358 360 362 364 366 368 370 372"/>
    </vehicle>

    <vehicle id="16_0" type="car" depart="27763.00" arrival="27945.00">
        <route edges="206 208 210 212 214 216 218 220 222 224 226 228 230 232 234 236 238 239 237 235 233 231 229 227 225 223 221 219 217 215 213 211 209 207 205 603 601 530 528 526 524 522 520 518 516 514 512 510 599 597 595 593 591 472 473 474 260 261 262 263 264 265 266 267 268 269 270 271 272 273 274 249 250 604 605 606 607 608 357 355 353 351"/>
    </vehicle>

    <vehicle id="48_0" type="car" depart="27850.00" arrival="28104.00">
        <route edges="333 334 335 336 337 310 110 193 194 195 196 197 249 250 604 605 606 607 608 357 355 353 351 349 347 345 343 341 339 240 241 242 177 178 179 180 181 182 183 184 185 186 187 387 388 389 390 413 579 580 581 582 583 584 586 588 173 175"/>
    </vehicle>

    <vehicle id="84_0" type="car" depart="27883.00" arrival="28275.00">
        <route edges="534 533 535 537 539 541 543 545 547 549 111 113 115 117 119 121 346 67 65 63 61 59 57 55 53 51 49 47"/>
    </vehicle>

    <vehicle id="202_0" type="car" depart="28215.00" arrival="28284.00">
        <route edges="304 305 306 287 288 289 290 291 292 293 294 295 408 409 410 338 340 342 344 122 120 118 116 114"/>
    </vehicle>

    <vehicle id="12_0" type="car" depart="28475.00" arrival="28694.00">
        <route edges="345 343 341 339 240 241 242 177 178 179 180 181 182 183 184 185 186 187 303 304 305 306 287 288 384 432 434 436 438 440 621 623 625 600 602 204 206 208 210 212 214 216 218 220 222 224 226 228 230 232 234 236 238 239 237 235 233 231 229 227 225 223 221 219 217 215 213 211 209"/>
    </vehicle>

    <vehicle id="110_0" type="car" depart="28322.00" arrival="28741.00">
        <route edges="344 346 67 65 63 61 108 203 405 403 401 312 296 297 298 299 300 301 302 123 124 125 126 127 128 129"/>
    </vehicle>

    <vehicle id="213_0" type="car" depart="28634.00" arrival="28742.00">
        <route edges="370 372 374 376 378 380 382 630 628 584 586 588 452 454 456 458"/>
    </vehicle>

    <vehicle id="104_0" type="car" depart="28728.00" arrival="28784.00">
        <route edges="109 110 193 194 195 196 197 249 250 251 252 253 254 255 576 577 578 590 592 90 91"/>
    </vehicle>

    <vehicle id="105_0" type="car" depart="28646.00" arrival="28787.00">
        <route edges="596 598 509 511 513 515 517 519 521 523 525 527 529 626 624 622 620 130 132 134 136 138 140 142 144 146 148 149 147 145 143 141 139 137 135 133"/>
    </vehicle>

    <vehicle id="185_0" type="car" depart="28886.00" arrival="28894.00">
        <route edges="90 91 92 93 94 95"/>
    </vehicle>

    <vehicle id="135_0" type="car" depart="28802.00" arrival="28897.00">
        <route edges="439 437 435 433 385 291 292 293 294 295 555 556 557 177 178 179 180 181 182 183 184 185 186 187 387 388 323 325 327 329 431 428 429"/>
    </vehicle>

    <vehicle id="207_0" type="car" depart="28882.00" arrival="28918.00">
        <route edges="508 507 599 597 595 90 91"/>
    </vehicle>

    <vehicle id="211_0" type="car" depart="28718.00" arrival="28921.00">
        <route edges="251 252 253 254 255 256 257 258 259 260 261 262 263 264 265 484 485 275 277 279 451 449 396"/>
    </vehicle>

    <vehicle id="181_0" type="car" depart="28840.00" arrival="28950.00">
        <route edges="23 25 27 29 31 442 443 185 186 187 303 304 305 306 287 288 289 290 291 292 293 294 295 408 409 410 338 340 342 344 346 348 350 352 354 356 609 610 611 612 255 576"/>
    </vehicle>

    <vehicle id="199_0" type="car" depart="28819.00" arrival="28970.00">
        <route edges="16 270 271 272 273 274 249 250 604 605 606 607 608 357 355 353 351 349 347 345 343 341 339 240 241 242 177 178 179 180 181 182 183 184 185 186 187 387 388 389 390 413 579 580 581 582 583 584 586"/>
    </vehicle>

    <vehicle id="23_0" type="car" depart="28957.00" arrival="29011.00">
        <route edges="340 342 344 346 348 350 352 354 356 609 610"/>
    </vehicle>

    <vehicle id="128_0" type="car" depart="28973.00" arrival="29091.00">
        <route edges="388 389 390 569 570 571 287 288 289 290 291 292 293 294 295 408 409 410 338 340 342 344 346 348 350 352 354 356 609 610 611 612 255 256 257 258"/>
    </vehicle>

    <vehicle id="180_0" type="car" depart="29033.00" arrival="29170.00">
        <route edges="401 400 192 193 194 195 196 197 249 250 251 252 253 254 255 576 577 578 590 592 90"/>
    </vehicle>

    <vehicle id="176_0" type="car" depart="29043.00" arrival="29204.00">
        <route edges="465 463 461 459 457 455 453 589 587 585 627 629 613 615 617 618"/>
    </vehicle>

    <vehicle id="119_0" type="car" depart="29152.00" arrival="29240.00">
        <route edges="385 291 292 293 294 295 555 556 557 177 178 179 180 181 182 183 184 185 186 187 303 304 305 306 287 288 384 432 434 436 438 440 621 623 625 530 528 526 524 522"/>
    </vehicle>

    <vehicle id="87_0" type="car" depart="29091.00" arrival="29271.00">
        <route edges="407 202 106 104 193 194 195 196 197 249 250 251 252 253 254 255 576 577 578 590 592 594 596 598"/>
    </vehicle>

    <vehicle id="233_0" type="car" depart="29129.00" arrival="29309.00">
        <route edges="413 414 569 570 571 287 288 289 290 291 292 293 294 295 555 556 557 177 178 179 481 482 483 32 30 28 26 24 22 20 18 1 3 5 7"/>
    </vehicle>

    <vehicle id="249_0" type="car" depart="29180.00" arrival="29337.00">
        <route edges="32 30 29 31 442 443 185 186 187 303 304 305 306 287 288 289 290 291 292 293 294 295 408 409 410 338 340 342 344 346 348 350 352 354 356 609 610 611 612 255 256 257 258 259 260 261 262 263 264 265 266 267 268 269 270 307 308 309 310 68"/>
    </vehicle>

    <vehicle id="90_0" type="car" depart="29288.00" arrival="29385.00">
        <route edges="257 258 259 260 261 262 263 264 265 266 267 268 269 270 271 272 273 274 249 250 251 252 253 254 255 576 577 578 590 592 594 596 598 509 511 513 515 517 519 521 523 525 527 529 626 624 622 621"/>
    </vehicle>

    <vehicle id="235_0" type="car" depart="29119.00" arrival="29440.00">
        <route edges="452 454 456 458 460 462 464 466 468 470 471 469 467 465 463 461 459 457 455 453 589 587 585 627 629 100 98 414 569 570 571 287 288 289 290 291 292 293 294 295 555 556 557 177 178 179 180 181 182 183 184 185 186 187 387 388 323 423 424 425"/>
    </vehicle>

    <vehicle id="222_0" type="car" depart="29350.00" arrival="29478.00">
        <route edges="372 374 376 378 380 382 100 98 414 569 570 571 287 288 289 290 291 292 293 294 295 408 409 410 338 340 342 344 346 348 350 352 354 356 609 610 611 612 255 256 257 258 259 260 261 262 263 264 265"/>
    </vehicle>

    <vehicle id="41_0" type="car" depart="29565.00" arrival="29612.00">
        <route edges="66 347 345 343 341 339 240 241 242"/>
    </vehicle>

    <vehicle id="55_0" type="car" depart="29652.00" arrival="29679.00">
        <route edges="66 348 350 352 354 356 609 610 611 612 255 256 257 258 259"/>
    </vehicle>

    <vehicle id="60_0" type="car" depart="29429.00" arrival="29698.00">
        <route edges="270 307 308 309 310 110 103 105 203 201 562"/>
    </vehicle>

    <vehicle id="171_0" type="car" depart="29609.00" arrival="29700.00">
        <route edges="485 13 14 15 16 270 271 272 273 274 249 250 251 252 253 254 255 576 577 578 590 592 594 596 598 509 511 513 515 517 519 521 523 525 527 529 530 528 526 524"/>
    </vehicle>

    <vehicle id="73_0" type="car" depart="29658.00" arrival="29727.00">
        <route edges="195 196 197 249 250 604 605 606 607 608 357 355 353 351 349 67 65 63 61 108"/>
    </vehicle>

    <vehicle id="179_0" type="car" depart="29351.00" arrival="29760.00">
        <route edges="208 210 212 214 216 218 220 222 224 226 228 230 232 234 236 238 239 237 235 233 231 229 227 225 223 221 219 217 215 213 211 209 207 205 603 601 626 624 622 441 439 437 435 433 385 291 292 293 294 295 555 556 557 177 178 179 481 482 483 32 30 28 26 24 22 20 18 1 3 5 7 9 46 48"/>
    </vehicle>

    <vehicle id="157_0" type="car" depart="29655.00" arrival="29831.00">
        <route edges="307 308 309 310 110 193 194 195 196 197 249 250 604 605 606 607 608 357 355 353 351 349 347 345 343"/>
    </vehicle>

    <vehicle id="168_0" type="car" depart="29674.00" arrival="29881.00">
        <route edges="420 421 422 330 328 326 324 389 390 569 570 571 287 288 289 290 291 292 293 294 295 555 556 557 177 178 179 481 482 483 32 30 248 246 244 532 102 101"/>
    </vehicle>

    <vehicle id="225_0" type="car" depart="29640.00" arrival="29891.00">
        <route edges="397 448 450 280 278 276 13 14 15 16 270 271 272 273 274 249 250 604 605 606 607 608 357 355 353 351 349 347 345 343 341 339 240 241 242 177 178 179 180 181 182 183 184 185 186 187 387 388 389 390 413 97 99 383 381 379 377 375 373"/>
    </vehicle>

    <vehicle id="45_0" type="car" depart="29682.00" arrival="29893.00">
        <route edges="468 470 471 469 467 465 463 461 459 457 455 453 589 587 585 627 629 100 98 414 569 570 571 287 288 289 290 291 292 293 294 295 555 556 557 177 178 179 180 181 182 183 184 185 186 187 387 388 323 325 327 329"/>
    </vehicle>

    <vehicle id="214_0" type="car" depart="29682.00" arrival="29906.00">
        <route edges="514 512 510 599 597 595 593 591 472 473 474 260 261 262 263 264 265 266 267 268 269 270 271 272 273 274 249 250 604 605 606 607 608 357 355 353 351 349 347 345 343 341 339 240 241 242 177 178 179 481 482 483 32 30 28 26 24 501"/>
    </vehicle>

    <vehicle id="169_0" type="car" depart="29878.00" arrival="29944.00">
        <route edges="291 292 293 294 295 408 409 410 338 340 342 344 346 348 350 352 354 356 609 610 611 612 255 256 257 258 259 260 188 189 190 566"/>
    </vehicle>

    <vehicle id="143_0" type="car" depart="29764.00" arrival="29979.00">
        <route edges="428 429 430 27 29 31 442 443 185 186 187 303 304 305 306 287 288 384 432 434 436 438 440 621 623 625 600 602 204 206 208 210 212 214 216 218 220 222 224 226 228 230 232 234 236 238 239 237 235 233 231 229 227 225 223 221 219 217 215 213 211 209 207"/>
    </vehicle>

    <vehicle id="49_0" type="car" depart="29934.00" arrival="30009.00">
        <route edges="543 545 547 549 111 113 115 117 119 121 346 348 350 352 354 356 609 610 611 612 255 256 257 258 259 260 261 262 263 264 265 266 267 268 269 270 271 272 273 274 249 250"/>
    </vehicle>

    <vehicle id="121_0" type="car" depart="29814.00" arrival="30038.00">
        <route edges="404 406 56 58 60 62 64 66 347 345 343 341 339 240 241 242 177 178 179 481 482 483 32 30 248 246"/>
    </vehicle>

    <vehicle id="227_0" type="car" depart="29973.00" arrival="30071.00">
        <route edges="549 111 113 115 117 119 121 346 348 350 352"/>
    </vehicle>

    <vehicle id="46_0" type="car" depart="30045.00" arrival="30094.00">
        <route edges="523 525 527 529 626 624 622 621"/>
    </vehicle>

    <vehicle id="164_0" type="car" depart="29734.00" arrival="30113.00">
        <route edges="311 400 192 193 194 195 196 197 249 250 251 252 253 254 255 576 577 578 590 592 594 596 598 509 511 513 515 517 519 521 523 525 527 529 626 624 622 620 130 132 134 136 138 140 142 144 146 148 149 147 145 143"/>
    </vehicle>

    <vehicle id="53_0" type="car" depart="30103.00" arrival="30193.00">
        <route edges="259 260 261 262 263 264 265 266 267 268 269 270 271 272 273 274 249 250 604 605 606 607 608 357 355 353 351 349 347 122 120 118 116 114 112"/>
    </vehicle>

    <vehicle id="112_0" type="car" depart="30019.00" arrival="30235.00">
        <route edges="23 25 27 29 31 442 443 185 186 187 303 304 305 306 287 288 289 290 291 292 293 294 295 408 409 410 338 340 342 344 346 348 350 352 354 356 609 610 611 612 255 256 257 258 259 260 261 262 263 264 265 484 485 275 277 279 451"/>
    </vehicle>

    <vehicle id="126_0" type="car" depart="30096.00" arrival="30338.00">
        <route edges="611 612 255 256 257 258 259 260 261 262 263 264 265 266 267 268 269 270 271 272 273 274 249 250 604 605 606 607 608 357 355 353 351 349 347 345 343 341 339 240 241 242 177 178 179 180 181 182 183 184 185 186 187 387 388 389 390 413 579 580 581 582 583 584 586 491 493 152 153"/>
    </vehicle>

    <vehicle id="166_0" type="car" depart="30103.00" arrival="30354.00">
        <route edges="132 134 136 138 140 142 144 146 148 149 147 145 143 141 139 137 135 133 131 618 616 614 630 628 584 586 491 493 494"/>
    </vehicle>

    <vehicle id="75_0" type="car" depart="30173.00" arrival="30413.00">
        <route edges="312 496 191 402 404 406 55 53 51 49"/>
    </vehicle>

    <vehicle id="22_0" type="car" depart="30373.00" arrival="30437.00">
        <route edges="437 435 433 385 291 292 293 294 295 555 556 557 177 178 179 180 181 182 183 184 185 186 187 387 388 389 390 413 97 99"/>
    </vehicle>

    <vehicle id="247_0" type="car" depart="30194.00" arrival="30558.00">
        <route edges="89 87 85 83 81 446 448 450 280 278 276 13 14 15 16 270 271 272 273 274 249 250 251 252 253 254 255 576 577 578 590 592 594 596 598 509 511 513 515 517 519 521 523 525 527 529 600 602 204 206 208 210 212 214 216 218 220 222 224 226 228 230"/>
    </vehicle>

    <vehicle id="58_0" type="car" depart="30317.00" arrival="30575.00">
        <route edges="352 354 356 609 610 611 612 255 256 257 258 259 260 261 262 263 264 265 484 485 275 277 279 451 449 447"/>
    </vehicle>

    <vehicle id="178_0" type="car" depart="30476.00" arrival="30617.00">
        <route edges="96 575 573 566 567 568 265 266 267 268 269 270 307 308 309 310 311 400 401"/>
    </vehicle>

    <vehicle id="52_0" type="car" depart="30590.00" arrival="30645.00">
        <route edges="352 354 356 609 610 611 612 255 256 257 258 259 260 261 262 263 264 265 266 267 268 269 270 271 272 273 274 249 250 604 605 606 607 608 357 355 353 351 349 67 65 63"/>
    </vehicle>

    <vehicle id="101_0" type="car" depart="30615.00" arrival="30689.00">
        <route edges="269 270 271 272 273 274 249 250 604 605 606 607 608 357 355 353 351 349 347 345 343 341 339 240 241 242 177 178 179 180 181 182 183 184 185 186 187 303 304"/>
    </vehicle>

    <vehicle id="43_0" type="car" depart="30526.00" arrival="30715.00">
        <route edges="24 23 25 27 29 31 442 443 185 186 187 387 388 389 390 413 97 99 383 381 379 377 375 373 371 369 367 365 363 361 359"/>
    </vehicle>

    <vehicle id="19_0" type="car" depart="30585.00" arrival="30748.00">
        <route edges="442 443 185 186 187 303 304 305 306 287 288 384 432 434 436 438 440 621 623 625 600 602 204 206 208 210 212 214 216 218 220 222 224 226 228 230 232 234 236 238 239 237 235 233 231 229 227"/>
    </vehicle>

    <vehicle id="102_0" type="car" depart="30618.00" arrival="30760.00">
        <route edges="421 422 330 328 326 325 327 329 431 428 429 430 26 24"/>
    </vehicle>

    <vehicle id="25_0" type="car" depart="30659.00" arrival="30772.00">
        <route edges="279 280 278 276 13 14 15 16 270 271 272 273 274 249 250 251 252 253 254 255 576 577 578 590 592 594 596 598 509 511 513 515 517 519 521 523 525 527 529 626 624 622 441 439 437 435"/>
    </vehicle>

    <vehicle id="231_0" type="car" depart="30699.00" arrival="30790.00">
        <route edges="341 339 240 241 242 177 178 179 180 181 182 183 184 185 186 187 387 388 389 390 413 97 99 383 381 379 377 375 373 371 369 367 365 363 361"/>
    </vehicle>

    <vehicle id="205_0" type="car" depart="30868.00" arrival="30945.00">
        <route edges="188 189 190 566 567 568 265 266 267 268 269 270 271 272 273 274 249 250 604 605 606 607 608 357 355 353 351 349 347 345 343 341 339 240 241 242 177 178 179"/>
    </vehicle>

    <vehicle id="145_0" type="car" depart="30792.00" arrival="30971.00">
        <route edges="518 516 514 512 510 599 597 595 593 591 472 473 474 260 261 262 263 264 265 266 267 268 269 270 307 308 309 310 311 400"/>
    </vehicle>

    <vehicle id="78_0" type="car" depart="30792.00" arrival="31024.00">
        <route edges="397 448 450 280 278 276 13 14 15 16 270 271 272 273 274 249 250 251 252 253 254 255 576 577 578 590 592 594 596 598 509 511 513 515 517 519 521 523 525 527 529 530 528 526"/>
    </vehicle>

    <vehicle id="106_0" type="car" depart="30867.00" arrival="31105.00">
        <route edges="397 448 450 280 278 276 13 14 15 16 270 271 272 273 274 249 250 251 252 253 254 255 576 577 578 590 592 594 596 598 509 511 513 515 517 519 521 523 525 527 529 530 528 526 524 522 520"/>
    </vehicle>

    <vehicle id="11_0" type="car" depart="30841.00" arrival="31111.00">
        <route edges="375 373 371 369 367 365 363 361 359 358 360 362 364 366 368 370 372 374 376 378 380 382 100 98 414 569 570 571 287 288 289 290 291 292 293 294 295 555 556 557 177 178 179 481 482 483 32 30 28 26 24 501 503 505 176"/>
    </vehicle>

    <vehicle id="155_0" type="car" depart="31050.00" arrival="31142.00">
        <route edges="301 302 123 124 125 126 127 128 129 495 76 78 79"/>
    </vehicle>

    <vehicle id="86_0" type="car" depart="30979.00" arrival="31209.00">
        <route edges="426 427 428 429 430 27 29 31 442 443 185 186 187 303 304 305 306 287 288 289 290 291 292 293 294 295 408 409 410 338 340 342 344 346 67 65 63 480 478 476 194 195 196"/>
    </vehicle>

    <vehicle id="139_0" type="car" depart="31010.00" arrival="31252.00">
        <route edges="162 163 164 165 166 153 494 492 587 585 627 629 613 615 617 130 132 134 136 138 140 142 144 146 148 149 147 145 143 141 139"/>
    </vehicle>

    <vehicle id="3_0" type="car" depart="30762.00" arrival="31399.00">
        <route edges="445 170 168 167 169 444 446 448 450 280 278 276 13 14 15 16 270 271 272 273 274 249 250 604 605 606 607 608 357 355 353 351 349 347 345 343 341 339 240 241 242 177 178 179 180 181 182 183 184 185 186 187 387 388 389 390 413 579 580 581 582 583 584 586 491 493 152 154 155 156 157 158 159 160 161 162 163"/>
    </vehicle>

    <vehicle id="192_0" type="car" depart="31141.00" arrival="31434.00">
        <route edges="447 79 77 496 191 402 404 406 56 58 60 62 64 66"/>
    </vehicle>

    <vehicle id="127_0" type="car" depart="31278.00" arrival="31483.00">
        <route edges="363 361 359 358 360 362 364 366 368 370 372 374 376 378 380 382 613 615 617 619 621 623 625 530 528 526 524 522 520 518 516 514 512 510 599 597 595 594"/>
    </vehicle>

    <vehicle id="88_0" type="car" depart="31336.00" arrival="31583.00">
        <route edges="449 448 450 280 278 276 13 14 15 16 270 271 272 273 274 249 250 251 252 253 254 255 576 577 578 590"/>
    </vehicle>

    <vehicle id="59_0" type="car" depart="31201.00" arrival="31633.00">
        <route edges="593 591 472 473 474 260 261 262 263 264 265 484 485 275 277 279 451 449 447 445 170 168"/>
    </vehicle>

    <vehicle id="6_0" type="car" depart="31344.00" arrival="31642.00">
        <route edges="503 505 176 174 589 587 585 627 629 613 615 617 619 621 623 625 600 602 204 206 208 210 212 214 216 218 220 222 224 226 228 230 232 234 236 238 239 237 235 233 231 229 227 225 223 221 219 217 215 213"/>
    </vehicle>

    <vehicle id="203_0" type="car" depart="31634.00" arrival="31676.00">
        <route edges="62 64 66 348 350 352 354 356 609 610 611 612 255 256 257 258 259 260 261 262 263 264 265 266 267 268 269 270 271 272 273 274 249 250"/>
    </vehicle>

    <vehicle id="94_0" type="car" depart="31197.00" arrival="31699.00">
        <route edges="352 354 356 609 610 611 612 255 256 257 258 259 260 261 262 263 264 265 484 485 275 277 279 451 449 447 445 170 168 167 169"/>
    </vehicle>

    <vehicle id="24_0" type="car" depart="31757.00" arrival="31798.00">
        <route edges="433 385 291 292 293 294 295 408 409 410 338 340 342"/>
    </vehicle>

    <vehicle id="160_0" type="car" depart="31437.00" arrival="31802.00">
        <route edges="431 428 429 430 27 29 31 442 443 185 186 187 303 304 305 306 287 288 289 290 291 292 293 294 295 408 409 410 338 340 342 344 346 67 65 63 61 59 57 407 201 562 564 191"/>
    </vehicle>

    <vehicle id="201_0" type="car" depart="31597.00" arrival="31825.00">
        <route edges="601 530 528 526 524 522 520 518 516 514 512 510 599 597 595 593 591 472 473 474 260 261 262 263 264 265 266 267 268 269 270 307 308 309 310 311 312 496 495"/>
    </vehicle>

    <vehicle id="182_0" type="car" depart="31580.00" arrival="31835.00">
        <route edges="116 114 112 550 548 546 544 542 540 538 536 534 243 245 247 28 26 24 501 503"/>
    </vehicle>

    <vehicle id="184_0" type="car" depart="31675.00" arrival="31923.00">
        <route edges="599 597 595 593 591 472 473 474 260 261 262 263 264 265 266 267 268 269 270 307 308 309 310 311 312 296 297 298"/>
    </vehicle>

    <vehicle id="63_0" type="car" depart="31822.00" arrival="31973.00">
        <route edges="324 389 390 413 97 99 383 381 379 377 375 373 371 369 367 365 363 361 359 358 360 362 364 366 368 370 372 374 376 378 380 382"/>
    </vehicle>

    <vehicle id="95_0" type="car" depart="31901.00" arrival="32017.00">
        <route edges="573 566 567 568 265 266 267 268 269 270 271 272 273 274 249 250 251 252 253 254 255 576 577 578 590 592 594 596 598 509 511 513 515 517 519 521 523 525 527 529 530 528 526 524 522 520 518 516 514 512"/>
    </vehicle>

    <vehicle id="15_0" type="car" depart="31962.00" arrival="32102.00">
        <route edges="549 111 113 115 117 119 121 346 348 350 352 354 356 609 610 611 612 255 256 257 258 259 260 261 262 263 264 265 484 485 275 277 279 281 283"/>
    </vehicle>

    <vehicle id="216_0" type="car" depart="31986.00" arrival="32139.00">
        <route edges="131 619 621 623 625 600 602 204 206 208 210 212 214 216 218 220 222 224 226 228 230 232 234 236 238 239 237 235 233 231 229 227 225 223 221"/>
    </vehicle>

    <vehicle id="71_0" type="car" depart="31892.00" arrival="32175.00">
        <route edges="247 29 31 442 443 185 186 187 387 388 389 390 413 579 580 581 582 583 584 586 588 452 454 456 458 460 462 464 466 468 470 471 469 467 465 463 461 459 457"/>
    </vehicle>

    <vehicle id="68_0" type="car" depart="32047.00" arrival="32190.00">
        <route edges="222 224 226 228 230 232 234 236 238 239 237 235 233 231 229 227 225 223 221 219 217 215 213 211 209 207 205 603 601 530 528 526 524 522 520 518 516 514 512 510 599 597 595 594 596"/>
    </vehicle>

    <vehicle id="241_0" type="car" depart="32156.00" arrival="32252.00">
        <route edges="85 83 81 79 77 496 565 563"/>
    </vehicle>

    <vehicle id="9_0" type="car" depart="32200.00" arrival="32282.00">
        <route edges="495 496 565 563 200"/>
    </vehicle>

    <vehicle id="177_0" type="car" depart="32138.00" arrival="32384.00">
        <route edges="608 357 355 353 351 349 347 345 343 341 339 240 241 242 177 178 179 180 181 182 183 184 185 186 187 387 388 389 390 413 97 99 613 615 617 130 132 134 136 138 140 142 144 146 148 149 147 145 143 141"/>
    </vehicle>

    <vehicle id="107_0" type="car" depart="32122.00" arrival="32392.00">
        <route edges="471 469 467 465 463 461 459 457 455 453 589 587 585 627 629 100 98 414 569 570 571 287 288 289 290 291 292 293 294 295 408 409 410 338 340 342 344 346 348 350 352 354 356 609 610 611 612 255 256 257 258 259 260 261 262 263 264 265 484 485 275 277 279 281 283 285 286"/>
    </vehicle>

    <vehicle id="28_0" type="car" depart="32289.00" arrival="32439.00">
        <route edges="272 273 274 249 250 251 252 253 254 255 576 577 578 590 592 594 596 598 509 511 513 515 517 519 521 523 525 527 529 600 602 204 206 208 210 212 214 216 218 220 222 224 226 228 230 232 234 236 238 239 237 235 233 231 229 227 225 223 221 219 217 215 213 211"/>
    </vehicle>

    <vehicle id="91_0" type="car" depart="31974.00" arrival="32473.00">