<?xml version="1.0" encoding="UTF-8"?>

<!-- generated on 2023-01-28 14:05:30 by Eclipse SUMO sumo Version 1.15.0
<configuration xmlns:xsi="http://www.w3.org/2001/XMLSchema-instance" xsi:noNamespaceSchemaLocation="http://sumo.dlr.de/xsd/sumoConfiguration.xsd">

    <input>
        <net-file value="MASA.net.xml"/>
        <route-files value="plans/plans100.rou.xml"/>
        <additional-files value="MASA.add.xml"/>
    </input>

    <output>
        <summary-output value="output/100Veh/summary.xml"/>
        <tripinfo-output value="output/100Veh/tripinfos.xml"/>
        <vehroute-output value="output/100Veh/vehroute.xml"/>
        <statistic-output value="output/100Veh/stats.xml"/>
    </output>

    <time>
        <begin value="0"/>
        <end value="86400"/>
        <step-length value="1"/>
    </time>

</configuration>
-->

<tripinfos xmlns:xsi="http://www.w3.org/2001/XMLSchema-instance" xsi:noNamespaceSchemaLocation="http://sumo.dlr.de/xsd/tripinfo_file.xsd">
    <tripinfo id="39_0" depart="25328.00" departLane="439_0" departPos="5.10" departSpeed="0.00" departDelay="0.00" arrival="25558.00" arrivalLane="407_0" arrivalPos="47.89" arrivalSpeed="2.86" duration="230.00" routeLength="917.60" waitingTime="0.00" waitingCount="0" stopTime="0.00" timeLoss="36.71" rerouteNo="1" devices="vehroute_39_0 tripinfo_39_0 routing_39_0" vType="car" speedFactor="0.94" vaporized=""/>
    <tripinfo id="3_0" depart="25219.00" departLane="445_0" departPos="5.10" departSpeed="0.00" departDelay="0.00" arrival="25807.00" arrivalLane="163_0" arrivalPos="4.90" arrivalSpeed="3.57" duration="588.00" routeLength="2481.93" waitingTime="32.00" waitingCount="2" stopTime="0.00" timeLoss="110.43" rerouteNo="1" devices="vehroute_3_0 tripinfo_3_0 routing_3_0" vType="car" speedFactor="1.06" vaporized=""/>
    <tripinfo id="10_0" depart="26193.00" departLane="151_0" departPos="5.10" departSpeed="0.00" departDelay="0.00" arrival="26443.00" arrivalLane="197_0" arrivalPos="0.20" arrivalSpeed="3.86" duration="250.00" routeLength="1115.84" waitingTime="37.00" waitingCount="2" stopTime="0.00" timeLoss="69.02" rerouteNo="1" devices="vehroute_10_0 tripinfo_10_0 routing_10_0" vType="car" speedFactor="1.01" vaporized=""/>
    <tripinfo id="25_0" depart="28088.00" departLane="279_0" departPos="5.10" departSpeed="0.00" departDelay="0.00" arrival="28202.00" arrivalLane="435_0" arrivalPos="5.16" arrivalSpeed="4.29" duration="114.00" routeLength="894.26" waitingTime="0.00" waitingCount="0" stopTime="0.00" timeLoss="16.89" rerouteNo="1" devices="vehroute_25_0 tripinfo_25_0 routing_25_0" vType="car" speedFactor="1.08" vaporized=""/>
    <tripinfo id="42_0" depart="28206.00" departLane="256_0" departPos="0.20" departSpeed="0.00" departDelay="0.00" arrival="28290.00" arrivalLane="218_0" arrivalPos="9.22" arrivalSpeed="13.71" duration="84.00" routeLength="902.46" waitingTime="0.00" waitingCount="0" stopTime="0.00" timeLoss="9.73" rerouteNo="1" devices="vehroute_42_0 tripinfo_42_0 routing_42_0" vType="car" speedFactor="1.03" vaporized=""/>
    <tripinfo id="35_0" depart="28300.00" departLane="23_0" departPos="5.10" departSpeed="0.00" departDelay="0.00" arrival="28511.00" arrivalLane="370_0" arrivalPos="4.66" arrivalSpeed="5.70" duration="211.00" routeLength="1054.45" waitingTime="3.00" waitingCount="1" stopTime="0.00" timeLoss="31.19" rerouteNo="1" devices="vehroute_35_0 tripinfo_35_0 routing_35_0" vType="car" speedFactor="0.83" vaporized=""/>
    <tripinfo id="15_0" depart="28712.00" departLane="549_0" departPos="1.89" departSpeed="0.00" departDelay="0.00" arrival="28809.00" arrivalLane="283_0" arrivalPos="26.08" arrivalSpeed="4.14" duration="97.00" routeLength="534.97" waitingTime="0.00" waitingCount="0" stopTime="0.00" timeLoss="12.61" rerouteNo="1" devices="vehroute_15_0 tripinfo_15_0 routing_15_0" vType="car" speedFactor="1.05" vaporized=""/>
    <tripinfo id="1_0" depart="29344.00" departLane="19_0" departPos="5.10" departSpeed="0.00" departDelay="0.00" arrival="29561.00" arrivalLane="578_0" arrivalPos="9.48" arrivalSpeed="2.78" duration="217.00" routeLength="1267.81" waitingTime="0.00" waitingCount="0" stopTime="0.00" timeLoss="22.75" rerouteNo="1" devices="vehroute_1_0 tripinfo_1_0 routing_1_0" vType="car" speedFactor="0.89" vaporized=""/>
    <tripinfo id="47_0" depart="29618.00" departLane="21_0" departPos="5.10" departSpeed="0.00" departDelay="0.00" arrival="29868.00" arrivalLane="529_0" arrivalPos="0.20" arrivalSpeed="12.97" duration="250.00" routeLength="1561.27" waitingTime="37.00" waitingCount="1" stopTime="0.00" timeLoss="61.79" rerouteNo="1" devices="vehroute_47_0 tripinfo_47_0 routing_47_0" vType="car" speedFactor="0.94" vaporized=""/>
    <tripinfo id="9_0" depart="30106.00" departLane="495_0" departPos="5.10" departSpeed="0.00" departDelay="0.00" arrival="30181.00" arrivalLane="200_0" arrivalPos="193.60" arrivalSpeed="3.94" duration="75.00" routeLength="290.36" waitingTime="0.00" waitingCount="0" stopTime="0.00" timeLoss="10.29" rerouteNo="1" devices="vehroute_9_0 tripinfo_9_0 routing_9_0" vType="car" speedFactor="1.09" vaporized=""/>
    <tripinfo id="11_0" depart="30078.00" departLane="375_0" departPos="5.10" departSpeed="0.00" departDelay="0.00" arrival="30449.00" arrivalLane="176_0" arrivalPos="117.52" arrivalSpeed="7.02" duration="371.00" routeLength="1700.20" waitingTime="0.00" waitingCount="0" stopTime="0.00" timeLoss="51.48" rerouteNo="1" devices="vehroute_11_0 tripinfo_11_0 routing_11_0" vType="car" speedFactor="0.86" vaporized=""/>
    <tripinfo id="37_0" depart="30648.00" departLane="522_0" departPos="5.10" departSpeed="0.00" departDelay="0.00" arrival="30811.00" arrivalLane="213_0" arrivalPos="26.06" arrivalSpeed="13.38" duration="163.00" routeLength="2032.54" waitingTime="0.00" waitingCount="0" stopTime="0.00" timeLoss="18.03" rerouteNo="1" devices="vehroute_37_0 tripinfo_37_0 routing_37_0" vType="car" speedFactor="1.03" vaporized=""/>
    <tripinfo id="17_0" depart="30812.00" departLane="404_0" departPos="5.10" departSpeed="0.00" departDelay="0.00" arrival="30918.00" arrivalLane="78_0" arrivalPos="53.36" arrivalSpeed="3.53" duration="106.00" routeLength="393.82" waitingTime="0.00" waitingCount="0" stopTime="0.00" timeLoss="14.96" rerouteNo="1" devices="vehroute_17_0 tripinfo_17_0 routing_17_0" vType="car" speedFactor="1.05" vaporized=""/>
    <tripinfo id="8_0" depart="30819.00" departLane="224_0" departPos="5.10" departSpeed="0.00" departDelay="0.00" arrival="31117.00" arrivalLane="12_0" arrivalPos="46.77" arrivalSpeed="3.89" duration="298.00" routeLength="2396.86" waitingTime="0.00" waitingCount="0" stopTime="0.00" timeLoss="35.61" rerouteNo="1" devices="vehroute_8_0 tripinfo_8_0 routing_8_0" vType="car" speedFactor="1.12" vaporized=""/>
    <tripinfo id="23_0" depart="31772.00" departLane="340_0" departPos="5.10" departSpeed="0.00" departDelay="0.00" arrival="31824.00" arrivalLane="610_0" arrivalPos="14.54" arrivalSpeed="7.48" duration="52.00" routeLength="387.14" waitingTime="0.00" waitingCount="0" stopTime="0.00" timeLoss="4.92" rerouteNo="1" devices="vehroute_23_0 tripinfo_23_0 routing_23_0" vType="car" speedFactor="0.99" vaporized=""/>
    <tripinfo id="46_0" depart="31851.00" departLane="523_0" departPos="5.10" departSpeed="0.00" departDelay="0.00" arrival="31899.00" arrivalLane="621_0" arrivalPos="88.04" arrivalSpeed="5.80" duration="48.00" routeLength="282.30" waitingTime="0.00" waitingCount="0" stopTime="0.00" timeLoss="8.37" rerouteNo="1" devices="vehroute_46_0 tripinfo_46_0 routing_46_0" vType="car" speedFactor="0.93" vaporized=""/>
    <tripinfo id="49_0" depart="32001.00" departLane="543_0" departPos="3.75" departSpeed="0.00" departDelay="0.00" arrival="32090.00" arrivalLane="250_0" arrivalPos="1.22" arrivalSpeed="6.08" duration="89.00" routeLength="472.20" waitingTime="0.00" waitingCount="0" stopTime="0.00" timeLoss="11.92" rerouteNo="1" devices="vehroute_49_0 tripinfo_49_0 routing_49_0" vType="car" speedFactor="0.88" vaporized=""/>
    <tripinfo id="18_0" depart="32043.00" departLane="242_0" departPos="0.39" departSpeed="0.00" departDelay="0.00" arrival="32094.00" arrivalLane="627_0" arrivalPos="1.95" arrivalSpeed="4.47" duration="51.00" routeLength="214.52" waitingTime="12.00" waitingCount="1" stopTime="0.00" timeLoss="22.25" rerouteNo="1" devices="vehroute_18_0 tripinfo_18_0 routing_18_0" vType="car" speedFactor="0.94" vaporized=""/>
    <tripinfo id="7_0" depart="32049.00" departLane="222_0" departPos="5.10" departSpeed="0.00" departDelay="0.00" arrival="32209.00" arrivalLane="190_0" arrivalPos="9.75" arrivalSpeed="7.62" duration="160.00" routeLength="1776.66" waitingTime="0.00" waitingCount="0" stopTime="0.00" timeLoss="17.62" rerouteNo="1" devices="vehroute_7_0 tripinfo_7_0 routing_7_0" vType="car" speedFactor="0.94" vaporized=""/>
    <tripinfo id="0_0" depart="32252.00" departLane="582_0" departPos="5.10" departSpeed="0.00" departDelay="0.00" arrival="32286.00" arrivalLane="620_0" arrivalPos="18.92" arrivalSpeed="7.40" duration="34.00" routeLength="230.45" waitingTime="0.00" waitingCount="0" stopTime="0.00" timeLoss="4.80" rerouteNo="1" devices="vehroute_0_0 tripinfo_0_0 routing_0_0" vType="car" speedFactor="1.16" vaporized=""/>
    <tripinfo id="5_0" depart="32797.00" departLane="514_0" departPos="5.10" departSpeed="0.00" departDelay="0.00" arrival="32939.00" arrivalLane="217_0" arrivalPos="8.99" arrivalSpeed="14.14" duration="142.00" routeLength="1750.31" waitingTime="0.00" waitingCount="0" stopTime="0.00" timeLoss="15.60" rerouteNo="1" devices="vehroute_5_0 tripinfo_5_0 routing_5_0" vType="car" speedFactor="1.02" vaporized=""/>
    <tripinfo id="36_0" depart="33073.00" departLane="140_0" departPos="5.10" departSpeed="0.00" departDelay="0.00" arrival="33252.00" arrivalLane="373_0" arrivalPos="6.12" arrivalSpeed="6.09" duration="179.00" routeLength="680.33" waitingTime="27.00" waitingCount="1" stopTime="0.00" timeLoss="49.38" rerouteNo="1" devices="vehroute_36_0 tripinfo_36_0 routing_36_0" vType="car" speedFactor="0.97" vaporized=""/>
    <tripinfo id="32_0" depart="33239.00" departLane="264_0" departPos="0.20" departSpeed="0.00" departDelay="0.00" arrival="33367.00" arrivalLane="571_0" arrivalPos="0.20" arrivalSpeed="6.92" duration="128.00" routeLength="636.11" waitingTime="26.00" waitingCount="1" stopTime="0.00" timeLoss="40.85" rerouteNo="1" devices="vehroute_32_0 tripinfo_32_0 routing_32_0" vType="car" speedFactor="0.89" vaporized=""/>
    <tripinfo id="27_0" depart="33282.00" departLane="338_0" departPos="0.45" departSpeed="0.00" departDelay="0.00" arrival="33411.00" arrivalLane="523_0" arrivalPos="47.97" arrivalSpeed="10.39" duration="129.00" routeLength="956.78" waitingTime="0.00" waitingCount="0" stopTime="0.00" timeLoss="14.52" rerouteNo="1" devices="vehroute_27_0 tripinfo_27_0 routing_27_0" vType="car" speedFactor="0.83" vaporized=""/>
    <tripinfo id="20_0" depart="32970.00" departLane="325_0" departPos="5.10" departSpeed="0.00" departDelay="0.00" arrival="33469.00" arrivalLane="81_0" arrivalPos="56.51" arrivalSpeed="3.32" duration="499.00" routeLength="2106.24" waitingTime="18.00" waitingCount="2" stopTime="0.00" timeLoss="89.56" rerouteNo="1" devices="vehroute_20_0 tripinfo_20_0 routing_20_0" vType="car" speedFactor="1.01" vaporized=""/>
    <tripinfo id="48_0" depart="33449.00" departLane="333_0" departPos="5.06" departSpeed="0.00" departDelay="0.00" arrival="33700.00" arrivalLane="175_0" arrivalPos="117.52" arrivalSpeed="6.61" duration="251.00" routeLength="1271.41" waitingTime="0.00" waitingCount="0" stopTime="0.00" timeLoss="33.24" rerouteNo="1" devices="vehroute_48_0 tripinfo_48_0 routing_48_0" vType="car" speedFactor="0.87" vaporized=""/>
    <tripinfo id="16_0" depart="33538.00" departLane="206_0" departPos="5.10" departSpeed="0.00" departDelay="0.00" arrival="33738.00" arrivalLane="351_0" arrivalPos="28.70" arrivalSpeed="7.02" duration="200.00" routeLength="2103.52" waitingTime="0.00" waitingCount="0" stopTime="0.00" timeLoss="19.72" rerouteNo="1" devices="vehroute_16_0 tripinfo_16_0 routing_16_0" vType="car" speedFactor="0.92" vaporized=""/>
    <tripinfo id="13_0" depart="33652.00" departLane="192_0" departPos="5.10" departSpeed="0.00" departDelay="0.00" arrival="33785.00" arrivalLane="276_0" arrivalPos="7.29" arrivalSpeed="4.54" duration="133.00" routeLength="538.14" waitingTime="0.00" waitingCount="0" stopTime="0.00" timeLoss="18.82" rerouteNo="1" devices="vehroute_13_0 tripinfo_13_0 routing_13_0" vType="car" speedFactor="1.13" vaporized=""/>
    <tripinfo id="21_0" depart="33556.00" departLane="161_0" departPos="4.90" departSpeed="0.00" departDelay="0.00" arrival="33786.00" arrivalLane="237_0" arrivalPos="87.64" arrivalSpeed="12.28" duration="230.00" routeLength="1587.33" waitingTime="0.00" waitingCount="0" stopTime="0.00" timeLoss="29.49" rerouteNo="1" devices="vehroute_21_0 tripinfo_21_0 routing_21_0" vType="car" speedFactor="0.95" vaporized=""/>
    <tripinfo id="30_0" depart="33747.00" departLane="540_0" departPos="3.16" departSpeed="0.00" departDelay="0.00" arrival="33793.00" arrivalLane="65_0" arrivalPos="8.39" arrivalSpeed="4.34" duration="46.00" routeLength="250.07" waitingTime="0.00" waitingCount="0" stopTime="0.00" timeLoss="6.68" rerouteNo="1" devices="vehroute_30_0 tripinfo_30_0 routing_30_0" vType="car" speedFactor="1.18" vaporized=""/>
    <tripinfo id="29_0" depart="33713.00" departLane="138_0" departPos="5.10" departSpeed="0.00" departDelay="0.00" arrival="33834.00" arrivalLane="579_0" arrivalPos="3.82" arrivalSpeed="6.27" duration="121.00" routeLength="455.90" waitingTime="0.00" waitingCount="0" stopTime="0.00" timeLoss="18.65" rerouteNo="1" devices="vehroute_29_0 tripinfo_29_0 routing_29_0" vType="car" speedFactor="0.93" vaporized=""/>
    <tripinfo id="28_0" depart="33849.00" departLane="272_0" departPos="4.65" departSpeed="0.00" departDelay="0.00" arrival="33995.00" arrivalLane="211_0" arrivalPos="23.00" arrivalSpeed="16.03" duration="146.00" routeLength="1931.71" waitingTime="0.00" waitingCount="0" stopTime="0.00" timeLoss="17.97" rerouteNo="1" devices="vehroute_28_0 tripinfo_28_0 routing_28_0" vType="car" speedFactor="1.15" vaporized=""/>
    <tripinfo id="4_0" depart="33856.00" departLane="358_0" departPos="5.10" departSpeed="0.00" departDelay="0.00" arrival="34052.00" arrivalLane="233_0" arrivalPos="87.13" arrivalSpeed="13.90" duration="196.00" routeLength="1758.93" waitingTime="0.00" waitingCount="0" stopTime="0.00" timeLoss="19.53" rerouteNo="1" devices="vehroute_4_0 tripinfo_4_0 routing_4_0" vType="car" speedFactor="1.01" vaporized=""/>
    <tripinfo id="31_0" depart="34159.00" departLane="353_0" departPos="5.10" departSpeed="0.00" departDelay="0.00" arrival="34249.00" arrivalLane="187_0" arrivalPos="4.52" arrivalSpeed="7.91" duration="90.00" routeLength="419.54" waitingTime="29.00" waitingCount="1" stopTime="0.00" timeLoss="38.47" rerouteNo="1" devices="vehroute_31_0 tripinfo_31_0 routing_31_0" vType="car" speedFactor="0.99" vaporized=""/>
    <tripinfo id="45_0" depart="34140.00" departLane="468_0" departPos="5.10" departSpeed="0.00" departDelay="0.00" arrival="34363.00" arrivalLane="329_0" arrivalPos="84.41" arrivalSpeed="4.78" duration="223.00" routeLength="1074.93" waitingTime="14.00" waitingCount="1" stopTime="0.00" timeLoss="45.00" rerouteNo="1" devices="vehroute_45_0 tripinfo_45_0 routing_45_0" vType="car" speedFactor="1.17" vaporized=""/>
    <tripinfo id="33_0" depart="34430.00" departLane="2_0" departPos="0.20" departSpeed="0.00" departDelay="0.00" arrival="34627.00" arrivalLane="473_0" arrivalPos="7.36" arrivalSpeed="3.64" duration="197.00" routeLength="1312.13" waitingTime="0.00" waitingCount="0" stopTime="0.00" timeLoss="18.98" rerouteNo="1" devices="vehroute_33_0 tripinfo_33_0 routing_33_0" vType="car" speedFactor="1.02" vaporized=""/>
    <tripinfo id="14_0" depart="34843.00" departLane="610_0" departPos="5.10" departSpeed="0.00" departDelay="0.00" arrival="34861.00" arrivalLane="485_0" arrivalPos="6.28" arrivalSpeed="3.84" duration="18.00" routeLength="117.59" waitingTime="0.00" waitingCount="0" stopTime="0.00" timeLoss="3.82" rerouteNo="1" devices="vehroute_14_0 tripinfo_14_0 routing_14_0" vType="car" speedFactor="1.18" vaporized=""/>
    <tripinfo id="40_0" depart="34671.00" departLane="550_0" departPos="1.89" departSpeed="0.00" departDelay="0.00" arrival="34961.00" arrivalLane="562_0" arrivalPos="57.03" arrivalSpeed="3.04" duration="290.00" routeLength="1007.79" waitingTime="11.00" waitingCount="1" stopTime="0.00" timeLoss="56.08" rerouteNo="1" devices="vehroute_40_0 tripinfo_40_0 routing_40_0" vType="car" speedFactor="0.97" vaporized=""/>
    <tripinfo id="43_0" depart="34976.00" departLane="24_0" departPos="5.10" departSpeed="0.00" departDelay="0.00" arrival="35123.00" arrivalLane="359_0" arrivalPos="64.53" arrivalSpeed="7.50" duration="147.00" routeLength="1029.43" waitingTime="0.00" waitingCount="0" stopTime="0.00" timeLoss="14.81" rerouteNo="1" devices="vehroute_43_0 tripinfo_43_0 routing_43_0" vType="car" speedFactor="1.10" vaporized=""/>
    <tripinfo id="26_0" depart="35225.00" departLane="500_0" departPos="5.10" departSpeed="0.00" departDelay="0.00" arrival="35298.00" arrivalLane="208_0" arrivalPos="23.96" arrivalSpeed="11.37" duration="73.00" routeLength="429.83" waitingTime="2.00" waitingCount="1" stopTime="0.00" timeLoss="12.23" rerouteNo="1" devices="vehroute_26_0 tripinfo_26_0 routing_26_0" vType="car" speedFactor="0.90" vaporized=""/>
    <tripinfo id="38_0" depart="35475.00" departLane="179_0" departPos="4.98" departSpeed="0.00" departDelay="0.00" arrival="35599.00" arrivalLane="511_0" arrivalPos="17.32" arrivalSpeed="13.08" duration="124.00" routeLength="776.69" waitingTime="13.00" waitingCount="1" stopTime="0.00" timeLoss="31.45" rerouteNo="1" devices="vehroute_38_0 tripinfo_38_0 routing_38_0" vType="car" speedFactor="0.96" vaporized=""/>
    <tripinfo id="6_0" depart="35324.00" departLane="503_0" departPos="5.10" departSpeed="0.00" departDelay="0.00" arrival="35616.00" arrivalLane="213_0" arrivalPos="26.06" arrivalSpeed="13.23" duration="292.00" routeLength="2307.47" waitingTime="0.00" waitingCount="0" stopTime="0.00" timeLoss="32.99" rerouteNo="1" devices="vehroute_6_0 tripinfo_6_0 routing_6_0" vType="car" speedFactor="1.03" vaporized=""/>
    <tripinfo id="19_0" depart="36066.00" departLane="442_0" departPos="5.10" departSpeed="0.00" departDelay="0.00" arrival="36213.00" arrivalLane="227_0" arrivalPos="18.91" arrivalSpeed="14.39" duration="147.00" routeLength="1464.20" waitingTime="0.00" waitingCount="0" stopTime="0.00" timeLoss="16.97" rerouteNo="1" devices="vehroute_19_0 tripinfo_19_0 routing_19_0" vType="car" speedFactor="1.09" vaporized=""/>
    <tripinfo id="22_0" depart="36247.00" departLane="437_0" departPos="5.10" departSpeed="0.00" departDelay="0.00" arrival="36306.00" arrivalLane="99_0" arrivalPos="6.00" arrivalSpeed="7.85" duration="59.00" routeLength="324.68" waitingTime="0.00" waitingCount="0" stopTime="0.00" timeLoss="9.23" rerouteNo="1" devices="vehroute_22_0 tripinfo_22_0 routing_22_0" vType="car" speedFactor="1.04" vaporized=""/>
    <tripinfo id="34_0" depart="36168.00" departLane="465_0" departPos="5.10" departSpeed="0.00" departDelay="0.00" arrival="36353.00" arrivalLane="504_0" arrivalPos="351.39" arrivalSpeed="3.75" duration="185.00" routeLength="792.88" waitingTime="0.00" waitingCount="0" stopTime="0.00" timeLoss="27.07" rerouteNo="1" devices="vehroute_34_0 tripinfo_34_0 routing_34_0" vType="car" speedFactor="1.04" vaporized=""/>
    <tripinfo id="44_0" depart="36623.00" departLane="241_0" departPos="5.10" departSpeed="0.00" departDelay="0.00" arrival="36744.00" arrivalLane="164_0" arrivalPos="4.92" arrivalSpeed="4.44" duration="121.00" routeLength="621.23" waitingTime="0.00" waitingCount="0" stopTime="0.00" timeLoss="15.42" rerouteNo="1" devices="vehroute_44_0 tripinfo_44_0 routing_44_0" vType="car" speedFactor="1.09" vaporized=""/>
    <tripinfo id="41_0" depart="36911.00" departLane="66_0" departPos="0.79" departSpeed="0.00" departDelay="0.00" arrival="36988.00" arrivalLane="242_0" arrivalPos="0.39" arrivalSpeed="6.50" duration="77.00" routeLength="289.06" waitingTime="33.00" waitingCount="1" stopTime="0.00" timeLoss="38.08" rerouteNo="1" devices="vehroute_41_0 tripinfo_41_0 routing_41_0" vType="car" speedFactor="0.90" vaporized=""/>
    <tripinfo id="2_0" depart="36845.00" departLane="187_0" departPos="4.52" departSpeed="0.00" departDelay="0.00" arrival="37134.00" arrivalLane="199_0" arrivalPos="115.90" arrivalSpeed="3.83" duration="289.00" routeLength="1197.21" waitingTime="1.00" waitingCount="1" stopTime="0.00" timeLoss="46.79" rerouteNo="1" devices="vehroute_2_0 tripinfo_2_0 routing_2_0" vType="car" speedFactor="1.00" vaporized=""/>
    <tripinfo id="24_0" depart="39073.00" departLane="433_0" departPos="5.10" departSpeed="0.00" departDelay="0.00" arrival="39119.00" arrivalLane="342_0" arrivalPos="50.38" arrivalSpeed="6.84" duration="46.00" routeLength="202.20" waitingTime="0.00" waitingCount="0" stopTime="0.00" timeLoss="6.49" rerouteNo="1" devices="vehroute_24_0 tripinfo_24_0 routing_24_0" vType="car" speedFactor="0.88" vaporized=""/>
    <tripinfo id="12_0" depart="39774.00" departLane="345_0" departPos="5.10" departSpeed="0.00" departDelay="0.00" arrival="40012.00" arrivalLane="209_0" arrivalPos="23.96" arrivalSpeed="11.03" duration="238.00" routeLength="1855.95" waitingTime="0.00" waitingCount="0" stopTime="0.00" timeLoss="27.14" rerouteNo="1" devices="vehroute_12_0 tripinfo_12_0 routing_12_0" vType="car" speedFactor="0.85" vaporized=""/>
    <tripinfo id="35_0" depart="55210.00" departLane="370_0" departPos="4.66" departSpeed="0.00" departDelay="0.00" arrival="55387.00" arrivalLane="23_0" arrivalPos="135.89" arrivalSpeed="5.57" duration="177.00" routeLength="959.96" waitingTime="0.00" waitingCount="0" stopTime="0.00" timeLoss="20.06" rerouteNo="1" devices="vehroute_35_0 tripinfo_35_0 routing_35_0" vType="car" speedFactor="0.85" vaporized=""/>
    <tripinfo id="21_0" depart="58024.00" departLane="237_0" departPos="5.10" departSpeed="0.00" departDelay="0.00" arrival="58229.00" arrivalLane="161_0" arrivalPos="4.90" arrivalSpeed="4.32" duration="205.00" routeLength="1322.51" waitingTime="32.00" waitingCount="1" stopTime="0.00" timeLoss="56.53" rerouteNo="1" devices="vehroute_21_0 tripinfo_21_0 routing_21_0" vType="car" speedFactor="1.17" vaporized=""/>
    <tripinfo id="27_0" depart="58375.00" departLane="523_0" departPos="5.10" departSpeed="0.00" departDelay="0.00" arrival="58447.00" arrivalLane="338_0" arrivalPos="0.45" arrivalSpeed="7.28" duration="72.00" routeLength="377.09" waitingTime="0.00" waitingCount="0" stopTime="0.00" timeLoss="12.34" rerouteNo="1" devices="vehroute_27_0 tripinfo_27_0 routing_27_0" vType="car" speedFactor="1.02" vaporized=""/>
    <tripinfo id="12_0" depart="58754.00" departLane="209_0" departPos="5.10" departSpeed="0.00" departDelay="0.00" arrival="58852.00" arrivalLane="345_0" arrivalPos="80.06" arrivalSpeed="8.44" duration="98.00" routeLength="628.64" waitingTime="0.00" waitingCount="0" stopTime="0.00" timeLoss="15.49" rerouteNo="1" devices="vehroute_12_0 tripinfo_12_0 routing_12_0" vType="car" speedFactor="1.10" vaporized=""/>
    <tripinfo id="20_0" depart="59027.00" departLane="81_0" departPos="5.10" departSpeed="0.00" departDelay="0.00" arrival="59369.00" arrivalLane="325_0" arrivalPos="14.63" arrivalSpeed="3.12" duration="342.00" routeLength="1326.06" waitingTime="43.00" waitingCount="2" stopTime="0.00" timeLoss="88.37" rerouteNo="1" devices="vehroute_20_0 tripinfo_20_0 routing_20_0" vType="car" speedFactor="1.00" vaporized=""/>
    <tripinfo id="47_0" depart="59895.00" departLane="529_0" departPos="0.20" departSpeed="0.00" departDelay="0.00" arrival="60131.00" arrivalLane="21_0" arrivalPos="91.64" arrivalSpeed="5.75" duration="236.00" routeLength="1368.82" waitingTime="0.00" waitingCount="0" stopTime="0.00" timeLoss="26.08" rerouteNo="1" devices="vehroute_47_0 tripinfo_47_0 routing_47_0" vType="car" speedFactor="1.00" vaporized=""/>
    <tripinfo id="33_0" depart="60626.00" departLane="473_0" departPos="5.10" departSpeed="0.00" departDelay="0.00" arrival="60892.00" arrivalLane="2_0" arrivalPos="0.20" arrivalSpeed="2.54" duration="266.00" routeLength="1434.75" waitingTime="0.00" waitingCount="0" stopTime="0.00" timeLoss="30.75" rerouteNo="1" devices="vehroute_33_0 tripinfo_33_0 routing_33_0" vType="car" speedFactor="0.90" vaporized=""/>
    <tripinfo id="0_0" depart="60932.00" departLane="620_0" departPos="5.10" departSpeed="0.00" departDelay="0.00" arrival="60961.00" arrivalLane="582_0" arrivalPos="9.17" arrivalSpeed="7.22" duration="29.00" routeLength="199.85" waitingTime="0.00" waitingCount="0" stopTime="0.00" timeLoss="3.79" rerouteNo="1" devices="vehroute_0_0 tripinfo_0_0 routing_0_0" vType="car" speedFactor="1.14" vaporized=""/>
    <tripinfo id="40_0" depart="61028.00" departLane="562_0" departPos="5.10" departSpeed="0.00" departDelay="0.00" arrival="61329.00" arrivalLane="550_0" arrivalPos="1.89" arrivalSpeed="3.47" duration="301.00" routeLength="1056.05" waitingTime="44.00" waitingCount="1" stopTime="0.00" timeLoss="83.56" rerouteNo="1" devices="vehroute_40_0 tripinfo_40_0 routing_40_0" vType="car" speedFactor="1.02" vaporized=""/>
    <tripinfo id="15_0" depart="61251.00" departLane="283_0" departPos="5.10" departSpeed="0.00" departDelay="0.00" arrival="61379.00" arrivalLane="549_0" arrivalPos="1.89" arrivalSpeed="3.59" duration="128.00" routeLength="575.92" waitingTime="0.00" waitingCount="0" stopTime="0.00" timeLoss="19.69" rerouteNo="1" devices="vehroute_15_0 tripinfo_15_0 routing_15_0" vType="car" speedFactor="0.97" vaporized=""/>
    <tripinfo id="13_0" depart="61362.00" departLane="276_0" departPos="5.10" departSpeed="0.00" departDelay="0.00" arrival="61572.00" arrivalLane="192_0" arrivalPos="299.75" arrivalSpeed="3.27" duration="210.00" routeLength="806.78" waitingTime="0.00" waitingCount="0" stopTime="0.00" timeLoss="31.77" rerouteNo="1" devices="vehroute_13_0 tripinfo_13_0 routing_13_0" vType="car" speedFactor="1.08" vaporized=""/>
    <tripinfo id="38_0" depart="61824.00" departLane="511_0" departPos="5.10" departSpeed="0.00" departDelay="0.00" arrival="61911.00" arrivalLane="179_0" arrivalPos="4.98" arrivalSpeed="8.10" duration="87.00" routeLength="691.89" waitingTime="0.00" waitingCount="0" stopTime="0.00" timeLoss="11.71" rerouteNo="1" devices="vehroute_38_0 tripinfo_38_0 routing_38_0" vType="car" speedFactor="1.12" vaporized=""/>
    <tripinfo id="43_0" depart="62075.00" departLane="359_0" departPos="5.10" departSpeed="0.00" departDelay="0.00" arrival="62236.00" arrivalLane="24_0" arrivalPos="135.89" arrivalSpeed="6.01" duration="161.00" routeLength="1044.41" waitingTime="0.00" waitingCount="0" stopTime="0.00" timeLoss="16.38" rerouteNo="1" devices="vehroute_43_0 tripinfo_43_0 routing_43_0" vType="car" speedFactor="1.02" vaporized=""/>
    <tripinfo id="28_0" depart="62253.00" departLane="211_0" departPos="5.10" departSpeed="0.00" departDelay="0.00" arrival="62325.00" arrivalLane="272_0" arrivalPos="4.65" arrivalSpeed="8.08" duration="72.00" routeLength="761.86" waitingTime="0.00" waitingCount="0" stopTime="0.00" timeLoss="8.92" rerouteNo="1" devices="vehroute_28_0 tripinfo_28_0 routing_28_0" vType="car" speedFactor="0.99" vaporized=""/>
    <tripinfo id="36_0" depart="63032.00" departLane="373_0" departPos="5.10" departSpeed="0.00" departDelay="0.00" arrival="63220.00" arrivalLane="140_0" arrivalPos="9.13" arrivalSpeed="2.66" duration="188.00" routeLength="899.29" waitingTime="2.00" waitingCount="1" stopTime="0.00" timeLoss="29.43" rerouteNo="1" devices="vehroute_36_0 tripinfo_36_0 routing_36_0" vType="car" speedFactor="0.94" vaporized=""/>
    <tripinfo id="7_0" depart="63230.00" departLane="190_0" departPos="5.10" departSpeed="0.00" departDelay="0.00" arrival="63335.00" arrivalLane="222_0" arrivalPos="29.61" arrivalSpeed="11.82" duration="105.00" routeLength="961.24" waitingTime="0.00" waitingCount="0" stopTime="0.00" timeLoss="12.73" rerouteNo="1" devices="vehroute_7_0 tripinfo_7_0 routing_7_0" vType="car" speedFactor="0.88" vaporized=""/>
    <tripinfo id="14_0" depart="63444.00" departLane="485_0" departPos="5.10" departSpeed="0.00" departDelay="0.00" arrival="63495.00" arrivalLane="610_0" arrivalPos="14.54" arrivalSpeed="6.95" duration="51.00" routeLength="305.60" waitingTime="0.00" waitingCount="0" stopTime="0.00" timeLoss="6.69" rerouteNo="1" devices="vehroute_14_0 tripinfo_14_0 routing_14_0" vType="car" speedFactor="0.91" vaporized=""/>
    <tripinfo id="10_0" depart="63794.00" departLane="197_0" departPos="0.20" departSpeed="0.00" departDelay="0.00" arrival="64017.00" arrivalLane="151_0" arrivalPos="150.68" arrivalSpeed="3.04" duration="223.00" routeLength="1090.06" waitingTime="0.00" waitingCount="0" stopTime="0.00" timeLoss="30.81" rerouteNo="1" devices="vehroute_10_0 tripinfo_10_0 routing_10_0" vType="car" speedFactor="0.91" vaporized=""/>
    <tripinfo id="31_0" depart="63987.00" departLane="187_0" departPos="4.52" departSpeed="0.00" departDelay="0.00" arrival="64124.00" arrivalLane="353_0" arrivalPos="10.85" arrivalSpeed="8.16" duration="137.00" routeLength="717.70" waitingTime="43.00" waitingCount="1" stopTime="0.00" timeLoss="53.63" rerouteNo="1" devices="vehroute_31_0 tripinfo_31_0 routing_31_0" vType="car" speedFactor="1.04" vaporized=""/>
    <tripinfo id="42_0" depart="64090.00" departLane="218_0" departPos="5.10" departSpeed="0.00" departDelay="0.00" arrival="64253.00" arrivalLane="256_0" arrivalPos="0.20" arrivalSpeed="8.07" duration="163.00" routeLength="1916.63" waitingTime="0.00" waitingCount="0" stopTime="0.00" timeLoss="17.86" rerouteNo="1" devices="vehroute_42_0 tripinfo_42_0 routing_42_0" vType="car" speedFactor="1.02" vaporized=""/>