<?xml version="1.0" encoding="UTF-8"?>

<!-- generated on 2022-12-12 09:19:15 by Eclipse SUMO sumo Version 1.15.0
<configuration xmlns:xsi="http://www.w3.org/2001/XMLSchema-instance" xsi:noNamespaceSchemaLocation="http://sumo.dlr.de/xsd/sumoConfiguration.xsd">

    <input>
        <net-file value="MASA.net.xml"/>
        <route-files value="plans/plans200.rou.xml"/>
    </input>

    <output>
        <summary-output value="output/200Veh/summary.xml"/>
        <tripinfo-output value="output/200Veh/tripinfos.xml"/>
        <vehroute-output value="output/200Veh/vehroute.xml"/>
        <statistic-output value="output/200Veh/stats.xml"/>
    </output>

    <time>
        <begin value="0"/>
        <end value="86400"/>
        <step-length value="1"/>
    </time>

    <traci_server>
        <remote-port value="57895"/>
    </traci_server>

</configuration>
-->

<routes xmlns:xsi="http://www.w3.org/2001/XMLSchema-instance" xsi:noNamespaceSchemaLocation="http://sumo.dlr.de/xsd/routes_file.xsd">
    <vehicle id="48_0" type="car" depart="23934.00" arrival="24134.00">
        <route edges="333 334 335 336 337 310 110 193 194 195 196 197 249 250 604 605 606 607 608 357 355 353 351 349 347 345 343 341 339 240 241 242 177 178 179 180 181 182 183 184 185 186 187 387 388 389 390 413 579 580 581 582 583 584 586 588 173 175"/>
    </vehicle>

    <vehicle id="18_0" type="car" depart="25286.00" arrival="25320.00">
        <route edges="242 177 178 179 180 181 182 183 184 185 186 187 387 388 389 390 413 97 99 630 628 627"/>
    </vehicle>

    <vehicle id="72_0" type="car" depart="25900.00" arrival="26187.00">
        <route edges="570 571 287 288 289 290 291 292 293 294 295 408 409 410 338 340 342 344 346 67 65 63 61 108 203 405 403 192"/>
    </vehicle>

    <vehicle id="78_0" type="car" depart="26559.00" arrival="26772.00">
        <route edges="397 448 450 280 278 276 13 14 15 16 270 271 272 273 274 249 250 251 252 253 254 255 576 577 578 590 592 594 596 598 509 511 513 515 517 519 521 523 525 527 529 530 528 526"/>
    </vehicle>

    <vehicle id="6_0" type="car" depart="26518.00" arrival="26797.00">
        <route edges="503 505 176 174 589 587 585 627 629 613 615 617 619 621 623 625 600 602 204 206 208 210 212 214 216 218 220 222 224 226 228 230 232 234 236 238 239 237 235 233 231 229 227 225 223 221 219 217 215 213"/>
    </vehicle>

    <vehicle id="86_0" type="car" depart="26705.00" arrival="26944.00">
        <route edges="426 427 428 429 430 27 29 31 442 443 185 186 187 303 304 305 306 287 288 289 290 291 292 293 294 295 408 409 410 338 340 342 344 346 67 65 63 480 478 476 194 195 196"/>
    </vehicle>

    <vehicle id="24_0" type="car" depart="27322.00" arrival="27361.00">
        <route edges="433 385 291 292 293 294 295 408 409 410 338 340 342"/>
    </vehicle>

    <vehicle id="88_0" type="car" depart="27848.00" arrival="28130.00">
        <route edges="449 448 450 280 278 276 13 14 15 16 270 271 272 273 274 249 250 251 252 253 254 255 576 577 578 590"/>
    </vehicle>

    <vehicle id="49_0" type="car" depart="28233.00" arrival="28314.00">
        <route edges="543 545 547 549 111 113 115 117 119 121 346 348 350 352 354 356 609 610 611 612 255 256 257 258 259 260 261 262 263 264 265 266 267 268 269 270 271 272 273 274 249 250"/>
    </vehicle>

    <vehicle id="53_0" type="car" depart="28346.00" arrival="28428.00">
        <route edges="259 260 261 262 263 264 265 266 267 268 269 270 271 272 273 274 249 250 604 605 606 607 608 357 355 353 351 349 347 122 120 118 116 114 112"/>
    </vehicle>

    <vehicle id="66_0" type="car" depart="28606.00" arrival="28643.00">
        <route edges="265 266 267 268 269 270 271 272 273 274 249 250 604 605 606 607 608 357 355 353 351 349 348 350 352"/>
    </vehicle>

    <vehicle id="79_0" type="car" depart="28578.00" arrival="28666.00">
        <route edges="116 114 112 550 548 546 544 542 540 538 536 535 537 539 541 543 545 547 549 111 113 115 117 119 121 346 348 350 352 354 356 609 610 611 612 255 256 257 258 259 260 261 262 263"/>
    </vehicle>

    <vehicle id="50_0" type="car" depart="28606.00" arrival="28748.00">
        <route edges="309 310 110 193 194 195 196 197 249 250 604 605 606 607 608 357 355 353 351 349 347 122 120 118 116 114 112 550 548 546 544 542 540"/>
    </vehicle>

    <vehicle id="58_0" type="car" depart="28811.00" arrival="29007.00">
        <route edges="352 354 356 609 610 611 612 255 256 257 258 259 260 261 262 263 264 265 484 485 275 277 279 451 449 447"/>
    </vehicle>

    <vehicle id="14_0" type="car" depart="29046.00" arrival="29067.00">
        <route edges="610 611 612 255 256 257 258 259 260 261 262 263 264 265 484 485"/>
    </vehicle>

    <vehicle id="16_0" type="car" depart="29254.00" arrival="29451.00">
        <route edges="206 208 210 212 214 216 218 220 222 224 226 228 230 232 234 236 238 239 237 235 233 231 229 227 225 223 221 219 217 215 213 211 209 207 205 603 601 530 528 526 524 522 520 518 516 514 512 510 599 597 595 593 591 472 473 474 260 261 262 263 264 265 266 267 268 269 270 271 272 273 274 249 250 604 605 606 607 608 357 355 353 351"/>
    </vehicle>

    <vehicle id="92_0" type="car" depart="29301.00" arrival="29458.00">
        <route edges="453 589 587 585 627 629 100 98 414 569 570 571 287 288 289 290 291 292 293 294 295 408 409 410 338 340 342 344 346 348 350 352 354 356 609 610 611 612 255 256 257 258 259 260 261 262 263 264 265 484 485 275 277 278 276"/>
    </vehicle>

    <vehicle id="7_0" type="car" depart="29540.00" arrival="29672.00">
        <route edges="222 224 226 228 230 232 234 236 238 239 237 235 233 231 229 227 225 223 221 219 217 215 213 211 209 207 205 603 601 530 528 526 524 522 520 518 516 514 512 510 599 597 595 593 591 472 473 474 260 188 189 190"/>
    </vehicle>

    <vehicle id="69_0" type="car" depart="29534.00" arrival="29712.00">
        <route edges="90 91 92 93 94 95 96 575 573 566 567 568 265 266 267 268 269 270 271 272 273 274 249 250 604 605 606 607 608 357 355 353 351 349 347 345 343 341 339 240 241 242 177 178 179 481 482 483 32 30 28 26 24 23"/>
    </vehicle>

    <vehicle id="89_0" type="car" depart="29663.00" arrival="29903.00">
        <route edges="551 552 535 537 539 541 543 545 547 549 111 113 115 117 119 121 346 348 350 352 354 356 609 610 611 612 255 256 257 258 259 260 261 262 263 264 265 484 485 275 277 279 451 449"/>
    </vehicle>

    <vehicle id="20_0" type="car" depart="29464.00" arrival="29980.00">
        <route edges="325 327 329 431 428 429 430 27 29 31 442 443 185 186 187 303 304 305 306 287 288 289 290 291 292 293 294 295 408 409 410 338 340 342 344 346 348 350 352 354 356 609 610 611 612 255 256 257 258 259 260 261 262 263 264 265 484 485 275 277 279 451 449 447 80 82 84 86 88 89 87 85 83 81"/>
    </vehicle>

    <vehicle id="64_0" type="car" depart="29969.00" arrival="30002.00">
        <route edges="275 277 278 276 13 14 15 16 270 271 272 273 274 249 250 251 252 253 254 255 256 257 258 259 260 261 262 263 264 265 484 485"/>
    </vehicle>

    <vehicle id="15_0" type="car" depart="30274.00" arrival="30379.00">
        <route edges="549 111 113 115 117 119 121 346 348 350 352 354 356 609 610 611 612 255 256 257 258 259 260 261 262 263 264 265 484 485 275 277 279 281 283"/>
    </vehicle>

    <vehicle id="90_0" type="car" depart="30416.00" arrival="30535.00">
        <route edges="257 258 259 260 261 262 263 264 265 266 267 268 269 270 271 272 273 274 249 250 251 252 253 254 255 576 577 578 590 592 594 596 598 509 511 513 515 517 519 521 523 525 527 529 626 624 622 621"/>
    </vehicle>

    <vehicle id="82_0" type="car" depart="30588.00" arrival="30607.00">
        <route edges="206 208 210 212 214 216 218 220 222 224 226"/>
    </vehicle>

    <vehicle id="12_0" type="car" depart="30500.00" arrival="30731.00">
        <route edges="345 343 341 339 240 241 242 177 178 179 180 181 182 183 184 185 186 187 303 304 305 306 287 288 384 432 434 436 438 440 621 623 625 600 602 204 206 208 210 212 214 216 218 220 222 224 226 228 230 232 234 236 238 239 237 235 233 231 229 227 225 223 221 219 217 215 213 211 209"/>
    </vehicle>

    <vehicle id="36_0" type="car" depart="30571.00" arrival="30733.00">
        <route edges="140 142 144 146 148 149 147 145 143 141 139 137 135 133 131 618 616 614 383 381 379 377 375 373"/>
    </vehicle>

    <vehicle id="25_0" type="car" depart="30648.00" arrival="30753.00">
        <route edges="279 280 278 276 13 14 15 16 270 271 272 273 274 249 250 251 252 253 254 255 576 577 578 590 592 594 596 598 509 511 513 515 517 519 521 523 525 527 529 626 624 622 441 439 437 435"/>
    </vehicle>

    <vehicle id="31_0" type="car" depart="30723.00" arrival="30772.00">
        <route edges="353 351 349 347 345 343 341 339 240 241 242 177 178 179 180 181 182 183 184 185 186 187"/>
    </vehicle>

    <vehicle id="65_0" type="car" depart="30583.00" arrival="30804.00">
        <route edges="349 347 345 343 341 339 240 241 242 177 178 179 481 482 483 32 30 28 26 24 501 503 505"/>
    </vehicle>

    <vehicle id="71_0" type="car" depart="30607.00" arrival="30894.00">
        <route edges="247 29 31 442 443 185 186 187 387 388 389 390 413 579 580 581 582 583 584 586 588 452 454 456 458 460 462 464 466 468 470 471 469 467 465 463 461 459 457"/>
    </vehicle>

    <vehicle id="98_0" type="car" depart="30926.00" arrival="31026.00">
        <route edges="607 608 357 355 353 351 349 347 345 343 341 339 240 241 242 177 178 179 180 181 182 183 184 185 186 187 303 304 305 306 287 288 384 432"/>
    </vehicle>

    <vehicle id="91_0" type="car" depart="30433.00" arrival="31061.00">
        <route edges="224 226 228 230 232 234 236 238 239 237 235 233 231 229 227 225 223 221 219 217 215 213 211 209 207 205 603 601 530 528 526 524 522 520 518 516 514 512 510 599 597 595 593 591 472 473 474 260 261 262 263 264 265 484 485 275 277 279 451 449 447 445 170 168 167 169"/>
    </vehicle>

    <vehicle id="17_0" type="car" depart="31014.00" arrival="31129.00">
        <route edges="404 405 403 401 312 76 78"/>
    </vehicle>

    <vehicle id="19_0" type="car" depart="30983.00" arrival="31144.00">
        <route edges="442 443 185 186 187 303 304 305 306 287 288 384 432 434 436 438 440 621 623 625 600 602 204 206 208 210 212 214 216 218 220 222 224 226 228 230 232 234 236 238 239 237 235 233 231 229 227"/>
    </vehicle>

    <vehicle id="45_0" type="car" depart="30953.00" arrival="31157.00">
        <route edges="468 470 471 469 467 465 463 461 459 457 455 453 589 587 585 627 629 100 98 414 569 570 571 287 288 289 290 291 292 293 294 295 555 556 557 177 178 179 180 181 182 183 184 185 186 187 387 388 323 325 327 329"/>
    </vehicle>

    <vehicle id="10_0" type="car" depart="30986.00" arrival="31191.00">
        <route edges="151 174 589 587 585 627 629 100 98 414 569 570 571 287 288 289 290 291 292 293 294 295 408 409 410 338 340 342 344 346 67 65 63 480 478 476 194 195 196 197"/>
    </vehicle>

    <vehicle id="57_0" type="car" depart="31099.00" arrival="31215.00">
        <route edges="481 482 483 442 443 185 186 187 303 304 305 306 287 288 289 290 291 292 293 294 295 408 409 410 338 340 342 344 346 348 350 352 354 356 609 610 611 612 255 256 257 258 259 260 261 262 263 264 265 484 485 275 277 279 281 283 285 286 284"/>
    </vehicle>

    <vehicle id="41_0" type="car" depart="31207.00" arrival="31243.00">
        <route edges="66 347 345 343 341 339 240 241 242"/>
    </vehicle>

    <vehicle id="52_0" type="car" depart="31567.00" arrival="31632.00">
        <route edges="352 354 356 609 610 611 612 255 256 257 258 259 260 261 262 263 264 265 266 267 268 269 270 271 272 273 274 249 250 604 605 606 607 608 357 355 353 351 349 67 65 63"/>
    </vehicle>

    <vehicle id="9_0" type="car" depart="31715.00" arrival="31796.00">
        <route edges="495 496 565 563 200"/>
    </vehicle>

    <vehicle id="21_0" type="car" depart="31760.00" arrival="31988.00">
        <route edges="161 162 163 164 165 166 153 494 492 587 585 627 629 613 615 617 619 621 623 625 600 602 204 206 208 210 212 214 216 218 220 222 224 226 228 230 232 234 236 238 239 237"/>
    </vehicle>

    <vehicle id="8_0" type="car" depart="31829.00" arrival="32135.00">
        <route edges="224 226 228 230 232 234 236 238 239 237 235 233 231 229 227 225 223 221 219 217 215 213 211 209 207 205 603 601 626 624 622 441 439 437 435 433 385 291 292 293 294 295 555 556 557 177 178 179 481 482 483 32 30 28 26 24 22 20 18 1 3 5 11 12"/>
    </vehicle>

    <vehicle id="55_0" type="car" depart="32166.00" arrival="32192.00">
        <route edges="66 348 350 352 354 356 609 610 611 612 255 256 257 258 259"/>
    </vehicle>

    <vehicle id="29_0" type="car" depart="32090.00" arrival="32196.00">
        <route edges="138 140 142 144 146 148 149 147 145 143 141 139 137 135 133 131 618 497 498 499 500 579"/>
    </vehicle>

    <vehicle id="77_0" type="car" depart="31904.00" arrival="32269.00">
        <route edges="50 52 54 56 58 60 62 64 66 347 345 343 341 339 240 241 242 177 178 179 180 181 182 183 184 185 186 187 387 388 389 390 413 97 99 383 381 379 377 375 373 371 369 367 365 363 361 359 358 360 362 364 366 368 370 372 374 376 378 380 382"/>
    </vehicle>

    <vehicle id="63_0" type="car" depart="32133.00" arrival="32272.00">
        <route edges="324 389 390 413 97 99 383 381 379 377 375 373 371 369 367 365 363 361 359 358 360 362 364 366 368 370 372 374 376 378 380 382"/>
    </vehicle>

    <vehicle id="38_0" type="car" depart="32528.00" arrival="32648.00">
        <route edges="179 180 181 182 183 184 185 186 187 303 304 305 306 287 288 289 290 291 292 293 294 295 408 409 410 338 340 342 344 346 348 350 352 354 356 609 610 611 612 255 576 577 578 590 592 594 596 598 509 511"/>
    </vehicle>

    <vehicle id="2_0" type="car" depart="32400.00" arrival="32722.00">
        <route edges="187 303 304 305 306 287 288 289 290 291 292 293 294 295 408 409 410 338 340 342 344 346 67 65 63 61 59 57 407 201 199"/>
    </vehicle>

    <vehicle id="54_0" type="car" depart="32402.00" arrival="32763.00">
        <route edges="5 6 4 2 17 19 21 23 25 27 29 31 442 443 185 186 187 303 304 305 306 287 288 384 432 434 436 438 440 621 623 625 600 602 204 206 208 210 212 214 216 218 220 222 224 226 228 230 232 234 236 238 239 237 235 233 231 229 227 225 223 221 219 217 215 213"/>
    </vehicle>

    <vehicle id="76_0" type="car" depart="32592.00" arrival="32831.00">
        <route edges="144 146 148 149 147 145 143 141 139 137 135 133 131 619 621 623 625 530 528 526 524 522 520 518 516 514 512 510 599 597 595 593 591 472 473 474 260 261 262 263 264 265 266 267 268 269 270 307 308 309 310"/>
    </vehicle>

    <vehicle id="35_0" type="car" depart="32711.00" arrival="32853.00">
        <route edges="23 25 27 29 31 442 443 185 186 187 387 388 389 390 413 97 99 383 381 379 377 375 373 371 369 367 365 363 361 359 358 360 362 364 366 368 370"/>
    </vehicle>

    <vehicle id="46_0" type="car" depart="32914.00" arrival="32957.00">
        <route edges="523 525 527 529 626 624 622 621"/>
    </vehicle>

    <vehicle id="85_0" type="car" depart="32903.00" arrival="33110.00">
        <route edges="10 8 6 4 2 17 19 21 23 25 27 29 31 442 443 185 186 187 387 388 389 390 413 579 580 581 582 583 584 586 588 173 174"/>
    </vehicle>

    <vehicle id="59_0" type="car" depart="32807.00" arrival="33116.00">
        <route edges="593 591 472 473 474 260 261 262 263 264 265 484 485 275 277 279 451 449 447 445 170 168"/>
    </vehicle>

    <vehicle id="0_0" type="car" depart="33106.00" arrival="33146.00">
        <route edges="582 583 627 629 613 615 617 619 620"/>
    </vehicle>

    <vehicle id="73_0" type="car" depart="33129.00" arrival="33208.00">
        <route edges="195 196 197 249 250 604 605 606 607 608 357 355 353 351 349 67 65 63 61 108"/>
    </vehicle>

    <vehicle id="5_0" type="car" depart="33171.00" arrival="33298.00">
        <route edges="514 512 510 509 511 513 515 517 519 521 523 525 527 529 600 602 204 206 208 210 212 214 216 218 220 222 224 226 228 230 232 234 236 238 239 237 235 233 231 229 227 225 223 221 219 217"/>
    </vehicle>

    <vehicle id="23_0" type="car" depart="33374.00" arrival="33423.00">
        <route edges="340 342 344 346 348 350 352 354 356 609 610"/>
    </vehicle>

    <vehicle id="51_0" type="car" depart="33192.00" arrival="33435.00">
        <route edges="477 479 61 108 106 104 109 68 70 449 395 394"/>
    </vehicle>

    <vehicle id="44_0" type="car" depart="33394.00" arrival="33512.00">
        <route edges="241 242 177 178 179 180 181 182 183 184 185 186 187 387 388 389 390 413 579 580 581 582 583 584 586 491 493 152 154 155 156 157 158 159 160 161 162 163 164"/>
    </vehicle>

    <vehicle id="93_0" type="car" depart="33358.00" arrival="33528.00">
        <route edges="140 142 144 146 148 149 147 145 143 141 139 137 135 133 131 619 621 623 625 530 528 526 524 522 520 518 516 514 512 510 599 597 595 90 91 92 93 94 95 96 575 573"/>
    </vehicle>

    <vehicle id="87_0" type="car" depart="33401.00" arrival="33581.00">
        <route edges="407 202 106 104 193 194 195 196 197 249 250 251 252 253 254 255 576 577 578 590 592 594 596 598"/>
    </vehicle>

    <vehicle id="75_0" type="car" depart="33435.00" arrival="33682.00">
        <route edges="312 496 191 402 404 406 55 53 51 49"/>
    </vehicle>

    <vehicle id="83_0" type="car" depart="33492.00" arrival="33688.00">
        <route edges="64 66 348 350 352 354 356 609 610 611 612 255 576 577 578 590 592 594 596 598 509 511 513 515 517 519 521 523 525 527 529 600 602 204 206 208 210 212 214 216 218 220 222 224 226 228 230 232 234 236 238 239 237 235 233 231 229 227 225 223 221 219 217 215 213 211 209 207 205"/>
    </vehicle>

    <vehicle id="67_0" type="car" depart="33707.00" arrival="33747.00">
        <route edges="613 615 497 498 499 500 414 569 570 571 287 288 289 290 291 292 293 294 295 408 409 410 338 340"/>
    </vehicle>

    <vehicle id="32_0" type="car" depart="33704.00" arrival="33804.00">
        <route edges="264 265 266 267 268 269 270 271 272 273 274 249 250 604 605 606 607 608 357 355 353 351 349 347 345 343 341 339 240 241 242 177 178 179 180 181 182 183 184 185 186 187 387 388 389 390 569 570 571"/>
    </vehicle>

    <vehicle id="56_0" type="car" depart="33818.00" arrival="33882.00">
        <route edges="273 274 249 250 604 605 606 607 608 357 355 353 351 349 347 345 343 341 339 240 241 242 177 178 179 180 181 182 183 184 185"/>
    </vehicle>

    <vehicle id="11_0" type="car" depart="33713.00" arrival="34060.00">
        <route edges="375 373 371 369 367 365 363 361 359 358 360 362 364 366 368 370 372 374 376 378 380 382 100 98 414 569 570 571 287 288 289 290 291 292 293 294 295 555 556 557 177 178 179 481 482 483 32 30 28 26 24 501 503 505 176"/>
    </vehicle>

    <vehicle id="61_0" type="car" depart="33992.00" arrival="34186.00">
        <route edges="471 469 467 465 463 461 459 457 455 453 589 587 585 627 629 100 98 414 569 570 571 287 288 289 290 291 292 293 294 295 555 556 557 177 178 179 481 482 483 32 30 29 31"/>
    </vehicle>

    <vehicle id="74_0" type="car" depart="34101.00" arrival="34192.00">
        <route edges="291 292 293 294 295 408 409 410 338 340 342 344 346 67 65 63 61 60"/>
    </vehicle>

    <vehicle id="99_0" type="car" depart="34325.00" arrival="34547.00">
        <route edges="449 448 450 281 283"/>
    </vehicle>

    <vehicle id="68_0" type="car" depart="34406.00" arrival="34568.00">
        <route edges="222 224 226 228 230 232 234 236 238 239 237 235 233 231 229 227 225 223 221 219 217 215 213 211 209 207 205 603 601 530 528 526 524 522 520 518 516 514 512 510 599 597 595 594 596"/>
    </vehicle>

    <vehicle id="60_0" type="car" depart="34619.00" arrival="34833.00">
        <route edges="270 307 308 309 310 110 103 105 203 201 562"/>
    </vehicle>

    <vehicle id="37_0" type="car" depart="34789.00" arrival="34958.00">
        <route edges="522 520 518 516 514 512 510 509 511 513 515 517 519 521 523 525 527 529 600 602 204 206 208 210 212 214 216 218 220 222 224 226 228 230 232 234 236 238 239 237 235 233 231 229 227 225 223 221 219 217 215 213"/>
    </vehicle>

    <vehicle id="1_0" type="car" depart="34768.00" arrival="34970.00">
        <route edges="19 21 23 25 27 29 31 442 443 185 186 187 303 304 305 306 287 288 289 290 291 292 293 294 295 408 409 410 338 340 342 344 346 348 350 352 354 356 609 610 611 612 255 576 577 578"/>
    </vehicle>

    <vehicle id="30_0" type="car" depart="34932.00" arrival="34986.00">
        <route edges="540 538 536 535 537 539 541 543 545 547 549 111 113 115 117 119 121 346 67 65"/>
    </vehicle>

    <vehicle id="26_0" type="car" depart="35007.00" arrival="35069.00">
        <route edges="500 97 99 613 615 617 619 621 623 625 600 602 204 206 208"/>
    </vehicle>

    <vehicle id="13_0" type="car" depart="34973.00" arrival="35131.00">
        <route edges="192 109 68 70 450 280 278 276"/>
    </vehicle>

    <vehicle id="70_0" type="car" depart="35120.00" arrival="35314.00">
        <route edges="348 350 352 354 356 609 610 611 612 255 256 257 258 259 260 261 262 263 264 265 266 267 268 269 270 271 272 273 274 249 250 604 605 606 607 608 357 355 353 351 349 347 345 343 341 339 240 241 242 177 178 179 180 181 182 183 184 185 186 187 387 388 389 390 413 579 580 581 582 583 584 586 491 493 152 154 155 156 157 158 159"/>
    </vehicle>

    <vehicle id="28_0" type="car" depart="35163.00" arrival="35322.00">
        <route edges="272 273 274 249 250 251 252 253 254 255 576 577 578 590 592 594 596 598 509 511 513 515 517 519 521 523 525 527 529 600 602 204 206 208 210 212 214 216 218 220 222 224 226 228 230 232 234 236 238 239 237 235 233 231 229 227 225 223 221 219 217 215 213 211"/>
    </vehicle>

    <vehicle id="22_0" type="car" depart="35420.00" arrival="35480.00">
        <route edges="437 435 433 385 291 292 293 294 295 555 556 557 177 178 179 180 181 182 183 184 185 186 187 387 388 389 390 413 97 99"/>
    </vehicle>

    <vehicle id="4_0" type="car" depart="35469.00" arrival="35664.00">
        <route edges="358 360 362 364 366 368 370 372 374 376 378 380 382 613 615 617 619 621 623 625 600 602 204 206 208 210 212 214 216 218 220 222 224 226 228 230 232 234 236 238 239 237 235 233"/>
    </vehicle>

    <vehicle id="40_0" type="car" depart="35625.00" arrival="35906.00">
        <route edges="550 548 546 544 542 540 538 536 535 537 539 541 543 545 547 549 111 113 115 117 119 121 346 67 65 63 61 59 57 407 201 562"/>
    </vehicle>

    <vehicle id="96_0" type="car" depart="35814.00" arrival="35997.00">
        <route edges="52 54 56 58 60 62 64 66 347 122 120 118 116 114 112 550 548 546 544 542 540 538 536 535 537 539 541"/>
    </vehicle>

    <vehicle id="81_0" type="car" depart="36069.00" arrival="36292.00">
        <route edges="442 443 185 186 187 303 304 305 306 287 288 289 290 291 292 293 294 295 408 409 410 338 340 342 344 346 348 350 352 354 356 609 610 611 612 255 256 257 258 259 260 261 262 263 264 265 266 267 268 269 270 307 308 309 310 311 399"/>
    </vehicle>

    <vehicle id="62_0" type="car" depart="36503.00" arrival="36679.00">
        <route edges="130 132 134 136 138 140 142 144 146 148 149 147 145 143 141 139 137 135 133 131 618 497 498 499 500 414 569 570 571 287 288 289 290 291 292 293 294 295 555 556 557 177 178 179 180 181 182 183 184 185"/>
    </vehicle>

    <vehicle id="94_0" type="car" depart="36438.00" arrival="36816.00">
        <route edges="352 354 356 609 610 611 612 255 256 257 258 259 260 261 262 263 264 265 484 485 275 277 279 451 449 447 445 170 168 167 169"/>
    </vehicle>

    <vehicle id="3_0" type="car" depart="36516.00" arrival="37104.00">
        <route edges="445 170 168 167 169 444 446 448 450 280 278 276 13 14 15 16 270 271 272 273 274 249 250 604 605 606 607 608 357 355 353 351 349 347 345 343 341 339 240 241 242 177 178 179 180 181 182 183 184 185 186 187 387 388 389 390 413 579 580 581 582 583 584 586 491 493 152 154 155 156 157 158 159 160 161 162 163"/>
    </vehicle>

    <vehicle id="33_0" type="car" depart="37084.00" arrival="37280.00">
        <route edges="2 17 19 21 23 25 27 29 31 442 443 185 186 187 303 304 305 306 287 288 289 290 291 292 293 294 295 408 409 410 338 340 342 344 346 348 350 352 354 356 609 610 611 612 255 576 577 578 472 473"/>
    </vehicle>

    <vehicle id="95_0" type="car" depart="37194.00" arrival="37296.00">
        <route edges="573 566 567 568 265 266 267 268 269 270 271 272 273 274 249 250 251 252 253 254 255 576 577 578 590 592 594 596 598 509 511 513 515 517 519 521 523 525 527 529 530 528 526 524 522 520 518 516 514 512"/>
    </vehicle>

    <vehicle id="39_0" type="car" depart="37636.00" arrival="37881.00">
        <route edges="439 437 435 433 385 291 292 293 294 295 408 409 410 338 340 342 344 346 67 65 63 61 59 57 407"/>
    </vehicle>

    <vehicle id="97_0" type="car" depart="37665.00" arrival="37964.00">
        <route edges="9 46 48 50 52 54 56 58 60 62 64 66 348 350 352 354 356 609 610 611 612 255 256 257 258 259 260 188 189"/>
    </vehicle>

    <vehicle id="42_0" type="car" depart="38160.00" arrival="38240.00">
        <route edges="256 257 258 259 260 261 262 263 264 265 266 267 268 269 270 271 272 273 274 249 250 251 252 253 254 255 576 577 578 590 592 594 596 598 509 511 513 515 517 519 521 523 525 527 529 600 602 204 206 208 210 212 214 216 218"/>
    </vehicle>

    <vehicle id="84_0" type="car" depart="38052.00" arrival="38378.00">
        <route edges="534 533 535 537 539 541 543 545 547 549 111 113 115 117 119 121 346 67 65 63 61 59 57 55 53 51 49 47"/>
    </vehicle>

    <vehicle id="43_0" type="car" depart="38261.00" arrival="38415.00">
        <route edges="24 23 25 27 29 31 442 443 185 186 187 387 388 389 390 413 97 99 383 381 379 377 375 373 371 369 367 365 363 361 359"/>
    </vehicle>

    <vehicle id="34_0" type="car" depart="38292.00" arrival="38479.00">
        <route edges="465 463 461 459 457 455 453 173 175 506 504"/>
    </vehicle>

    <vehicle id="47_0" type="car" depart="39025.00" arrival="39244.00">
        <route edges="21 23 25 27 29 31 442 443 185 186 187 303 304 305 306 287 288 289 290 291 292 293 294 295 408 409 410 338 340 342 344 346 348 350 352 354 356 609 610 611 612 255 576 577 578 590 592 594 596 598 509 511 513 515 517 519 521 523 525 527 529"/>
    </vehicle>

    <vehicle id="80_0" type="car" depart="39654.00" arrival="39826.00">
        <route edges="605 606 607 608 357 355 353 351 349 348 350 352 354 356 609 610 611 612 255 576 577 578 590 592 594 596 598 509 511 513 515 517 519 521 523 525 527 529 600 602 204 206 208 210 212 214 216 218 220 222 224 226 228 230 232 234 236 238 239 237 235 233 231 229 227 225 223 221"/>
    </vehicle>

    <vehicle id="27_0" type="car" depart="39993.00" arrival="40092.00">
        <route edges="338 340 342 344 346 348 350 352 354 356 609 610 611 612 255 576 577 578 590 592 594 596 598 509 511 513 515 517 519 521 523"/>
    </vehicle>

    <vehicle id="73_0" type="car" depart="57932.00" arrival="57999.00">
        <route edges="108 106 104 193 194 195"/>
    </vehicle>

    <vehicle id="75_0" type="car" depart="58325.00" arrival="58547.00">
        <route edges="49 47 46 48 50 52 54 407 405 403 401 312"/>
    </vehicle>

    <vehicle id="14_0" type="car" depart="58627.00" arrival="58676.00">
        <route edges="485 13 14 15 16 270 271 272 273 274 249 250 604 605 606 607 608 357 355 353 351 349 348 350 352 354 356 609 610"/>
    </vehicle>

    <vehicle id="7_0" type="car" depart="58917.00" arrival="59020.00">
        <route edges="190 566 567 568 265 266 267 268 269 270 271 272 273 274 249 250 251 252 253 254 255 576 577 578 590 592 594 596 598 509 511 513 515 517 519 521 523 525 527 529 600 602 204 206 208 210 212 214 216 218 220 222"/>
    </vehicle>

    <vehicle id="17_0" type="car" depart="59023.00" arrival="59126.00">
        <route edges="78 79 77 496 191 402 404"/>
    </vehicle>

    <vehicle id="20_0" type="car" depart="58837.00" arrival="59149.00">
        <route edges="81 446 448 450 280 278 276 13 14 15 16 270 271 272 273 274 249 250 604 605 606 607 608 357 355 353 351 349 347 345 343 341 339 240 241 242 177 178 179 180 181 182 183 184 185 186 187 387 388 323 325"/>
    </vehicle>

    <vehicle id="80_0" type="car" depart="59178.00" arrival="59259.00">
        <route edges="221 219 217 215 213 211 209 207 205 603 601 530 528 526 524 522 520 518 516 514 512 510 599 597 595 593 591 472 473 474 260 261 262 263 264 265 266 267 268 269 270 271 272 273 274 249 250 604 605"/>
    </vehicle>

    <vehicle id="12_0" type="car" depart="59802.00" arrival="59905.00">
        <route edges="209 207 205 603 601 626 624 622 441 439 437 435 433 385 291 292 293 294 295 408 409 410 338 340 342 344 345"/>
    </vehicle>

    <vehicle id="5_0" type="car" depart="60057.00" arrival="60099.00">
        <route edges="217 215 213 211 209 207 205 603 601 530 528 526 524 522 520 518 516 514"/>
    </vehicle>

    <vehicle id="93_0" type="car" depart="60577.00" arrival="60736.00">
        <route edges="573 566 567 568 265 266 267 268 269 270 271 272 273 274 249 250 251 252 253 254 255 576 577 578 590 592 594 596 598 509 511 513 515 517 519 521 523 525 527 529 626 624 622 620 130 132 134 136 138 140"/>
    </vehicle>

    <vehicle id="66_0" type="car" depart="60957.00" arrival="60979.00">
        <route edges="352 354 356 609 610 611 612 255 256 257 258 259 260 261 262 263 264 265"/>
    </vehicle>

    <vehicle id="99_0" type="car" depart="61049.00" arrival="61170.00">
        <route edges="283 285 286 284 282 451 449"/>
    </vehicle>

    <vehicle id="50_0" type="car" depart="61110.00" arrival="61193.00">
        <route edges="540 538 536 535 537 539 541 543 545 547 549 111 113 115 117 119 121 346 348 350 352 354 356 609 610 611 612 255 256 257 258 259 260 261 262 263 264 265 266 267 268 269 270 307 308 309"/>
    </vehicle>
