<?xml version="1.0" encoding="UTF-8"?>

<!-- generated on 2023-01-31 09:39:07 by Eclipse SUMO sumo Version 1.15.0
<configuration xmlns:xsi="http://www.w3.org/2001/XMLSchema-instance" xsi:noNamespaceSchemaLocation="http://sumo.dlr.de/xsd/sumoConfiguration.xsd">

    <input>
        <net-file value="sumo/MASA.net.xml"/>
        <route-files value="sumo/plans/plans2000.rou.xml"/>
        <additional-files value="sumo/MASA.add.xml"/>
    </input>

    <output>
        <summary-output value="sumo/output/2000Veh/summary.xml"/>
        <tripinfo-output value="sumo/output/2000Veh/tripinfos.xml"/>
        <vehroute-output value="sumo/output/2000Veh/vehroute.xml"/>
        <statistic-output value="sumo/output/2000Veh/stats.xml"/>
    </output>

    <time>
        <begin value="0"/>
        <end value="86400"/>
        <step-length value="1"/>
    </time>

</configuration>
-->

<routes xmlns:xsi="http://www.w3.org/2001/XMLSchema-instance" xsi:noNamespaceSchemaLocation="http://sumo.dlr.de/xsd/routes_file.xsd">
    <vehicle id="758_0" type="car" depart="21522.00" arrival="21621.00">
        <route edges="100 98 414 569 570 571 287 288 289 290 291 292 293 294 295 408 409 410 338 340 342 344 346 348 350 352 354 356 609 610 611 612 255 256"/>
    </vehicle>

    <vehicle id="28_0" type="car" depart="22978.00" arrival="23152.00">
        <route edges="272 273 274 249 250 251 252 253 254 255 576 577 578 590 592 594 596 598 509 511 513 515 517 519 521 523 525 527 529 600 602 204 206 208 210 212 214 216 218 220 222 224 226 228 230 232 234 236 238 239 237 235 233 231 229 227 225 223 221 219 217 215 213 211"/>
    </vehicle>

    <vehicle id="546_0" type="car" depart="23149.00" arrival="23165.00">
        <route edges="324 389 390 569 570 571 287 288 289"/>
    </vehicle>

    <vehicle id="63_0" type="car" depart="23225.00" arrival="23387.00">
        <route edges="324 389 390 413 97 99 383 381 379 377 375 373 371 369 367 365 363 361 359 358 360 362 364 366 368 370 372 374 376 378 380 382"/>
    </vehicle>

    <vehicle id="882_0" type="car" depart="23300.00" arrival="23457.00">
        <route edges="145 143 141 139 137 135 133 131 619 621 623 625 530 528 526 524 522 520 518 516 514 512 510 599 597 595 593 591 472 473 474 260 261 262 263 264 265 484 485 275 277 279"/>
    </vehicle>

    <vehicle id="307_0" type="car" depart="23499.00" arrival="23796.00">
        <route edges="47 10 8 6 4 2 17 19 21 23 25 27 29 31 442 443 185 186 187 387 388 389 390 413 579 580 581 582 583 584 586 588 173 175 506"/>
    </vehicle>

    <vehicle id="924_0" type="car" depart="23542.00" arrival="23868.00">
        <route edges="201 200 406 56 58 60 62 64 66 347 345 343 341 339 240 241 242 177 178 179 180 181 182 183 184 185 186 187 387 388 389 390 413 579 580 581 582"/>
    </vehicle>

    <vehicle id="436_0" type="car" depart="23946.00" arrival="24041.00">
        <route edges="356 609 610 611 612 255 576 577 578 590 592 594 596 598 509 511 513 515 517 519 521 523 525 527 529 626 624 622 441"/>
    </vehicle>

    <vehicle id="683_0" type="car" depart="24267.00" arrival="24372.00">
        <route edges="624 622 621 623 625 530 528 526 524 522 520 518 516 514 512 510 599 597 595 594"/>
    </vehicle>

    <vehicle id="274_0" type="car" depart="24169.00" arrival="24442.00">
        <route edges="198 200 406 56 58 60 480 478 476"/>
    </vehicle>

    <vehicle id="522_0" type="car" depart="24526.00" arrival="24654.00">
        <route edges="530 528 526 524 522 520 518 516 514 512 510 599 597 595 593 591 472 473 474 260 261 262 263 264 265 266 267 268 269 270 307 308 309 310 110 103 105 107"/>
    </vehicle>

    <vehicle id="775_0" type="car" depart="24758.00" arrival="24848.00">
        <route edges="533 535 537 539 541 543 545 547 549 111 113 115 117 119 121 345 343 341 339 240 241 242 177 178 179 180 181 182 183 184 185 186 187 303 304 305 306 287 288 289 290 291 292 293 294 295 408"/>
    </vehicle>

    <vehicle id="111_0" type="car" depart="24933.00" arrival="25099.00">
        <route edges="396 398 399 397 448 450 281 283 285"/>
    </vehicle>

    <vehicle id="982_0" type="car" depart="24890.00" arrival="25129.00">
        <route edges="568 265 266 267 268 269 270 271 272 273 274 249 250 604 605 606 607 608 357 355 353 351 349 347 345 343 341 339 240 241 242 177 178 179 481 482 483 32 30 28 26 24 501 503 505"/>
    </vehicle>

    <vehicle id="523_0" type="car" depart="24925.00" arrival="25246.00">
        <route edges="81 446 448 450 280 278 276 13 14 15 16 270 271 272 273 274 249 250 251 252 253 254 255 576 577 578 590 592 594 596 598 509 511 513 515 517 519 521 523 525 527 529 600 602 204 206 208 210 212 214 216 218 220 222 224 226 228 230 232 234"/>
    </vehicle>

    <vehicle id="466_0" type="car" depart="25245.00" arrival="25286.00">
        <route edges="97 99 100 98 414 569 570 571 287 288 289 290 291 292 293 294 295 555 556 557 177 178 179 481 482"/>
    </vehicle>

    <vehicle id="922_0" type="car" depart="25202.00" arrival="25303.00">
        <route edges="323 324 389 390 569 570 571 287 288 289 290 291 292 293 294 295 408 409 410 338 340 342 344 346 348 350 352 354"/>
    </vehicle>

    <vehicle id="660_0" type="car" depart="25269.00" arrival="25459.00">
        <route edges="520 518 516 514 512 510 509 511 513 515 517 519 521 523 525 527 529 626 624 622 620 130 132 134 136 138 140 142 144 146 148 149 147 145 143 141 139 137"/>
    </vehicle>

    <vehicle id="748_0" type="car" depart="25324.00" arrival="25533.00">
        <route edges="47 10 8 6 4 2 17 19 21 23 25 27 29 31 442 443 185 186 187 303 304 305 306 287 288 289 290 291 292 293 294 295 555 556 557 177 178 179 481 482 483"/>
    </vehicle>

    <vehicle id="208_0" type="car" depart="25383.00" arrival="25565.00">
        <route edges="332 333 334 335 336 337 310 110 193 194 195 196 197 249 250 604 605 606 607 608 357 355 353 351 349 347 345 343 341 339 240 241 242 177 178 179 180 181 182 183 184 185 186 187 387 388 389 390 413 579 580 581 582 583 584 586 588 173 174"/>
    </vehicle>

    <vehicle id="995_0" type="car" depart="25514.00" arrival="25615.00">
        <route edges="240 241 242 177 178 179 180 181 182 183 184 185 186 187 303 304 305 306 287 288 289 290 291 292 293 294 295 408 409 410 338 340 342 344 346 348 350 352 354 356 609 610 611 612 255 256 257 258 259 260 261 262 263 264 265 484 485 275 277 278 276"/>
    </vehicle>

    <vehicle id="645_0" type="car" depart="25420.00" arrival="25654.00">
        <route edges="330 328 326 325 327 329 431 428 429 430 26 24 22 20 18 1 3 5 7"/>
    </vehicle>

    <vehicle id="267_0" type="car" depart="25598.00" arrival="25661.00">
        <route edges="106 104 193 194 195 196 197"/>
    </vehicle>

    <vehicle id="515_0" type="car" depart="25699.00" arrival="25829.00">
        <route edges="361 359 358 360 362 364 366 368 370 372 374 376 378 380 382 100 98 414 569 570 571 287 288 289 290 291 292 293 294 295 555 556 557 177"/>
    </vehicle>

    <vehicle id="333_0" type="car" depart="25706.00" arrival="25930.00">
        <route edges="439 437 435 433 432 434 436 438 440 621 623 625 600 602 204 206 208 210 212 214 216 218 220 222 224 226 228 230 232 234 236 238 239 237 235 233 231 229 227 225 223 221 219 217 215 213 211 209 207 205"/>
    </vehicle>

    <vehicle id="941_0" type="car" depart="25585.00" arrival="25949.00">
        <route edges="86 88 89 87 85 83 81 446 448 450 280 278 276 13 14 15 16 270 271 272 273 274 249 250 251 252 253 254 255 576 577 578 590 592 594 596 598 509 511 513 515 517 519 521 523 525 527 529 530"/>
    </vehicle>

    <vehicle id="460_0" type="car" depart="25793.00" arrival="25966.00">
        <route edges="398 400 192 193 194 195 196 197 249 250 604 605 606 607 608 357 355 353 351 349 347 345 343 341 339 240 241 242 177 178 179 180 181 182 183"/>
    </vehicle>

    <vehicle id="324_0" type="car" depart="25929.00" arrival="26001.00">
        <route edges="357 355 353 351 349 348 350 352 354 356 609 610 611 612 255 576 577 578 590 592 594 596 598 509 511 513 515 517 519 521"/>
    </vehicle>

    <vehicle id="864_0" type="car" depart="25842.00" arrival="26020.00">
        <route edges="71 69 311 399 397 447 80 82"/>
    </vehicle>

    <vehicle id="831_0" type="car" depart="25988.00" arrival="26042.00">
        <route edges="291 292 293 294 295 408 409 410 338 340 342 344 122 120 118 116 114 112 550 548 546 544 542 540 538 536 535 537 539"/>
    </vehicle>

    <vehicle id="212_0" type="car" depart="25750.00" arrival="26062.00">
        <route edges="14 15 16 270 307 308 309 310 110 103 105 203 201 199 198"/>
    </vehicle>

    <vehicle id="740_0" type="car" depart="25816.00" arrival="26136.00">
        <route edges="144 146 148 149 147 145 143 141 139 137 135 133 131 619 621 623 625 530 528 526 524 522 520 518 516 514 512 510 599 597 595 593 591 472 473 474 260 261 262 263 264 265 266 267 268 269 270 307 308 309 310 311 400"/>
    </vehicle>

    <vehicle id="445_0" type="car" depart="25953.00" arrival="26152.00">
        <route edges="18 17 19 21 23 25 27 29 31 442 443 185 186 187 303 304 305 306 287 288 289 290 291 292 293 294 295 408 409 410 338 340 342 344 346 348 350 352 354 356 609 610 611 612 255 576 577 578 590 592 90 91"/>
    </vehicle>

    <vehicle id="898_0" type="car" depart="26141.00" arrival="26168.00">
        <route edges="197 249 250 251 252 253 254 255 576 577 578 590 592 594 596 598"/>
    </vehicle>

    <vehicle id="713_0" type="car" depart="25769.00" arrival="26233.00">
        <route edges="123 124 125 126 127 128 129 565 563 200 406 56 58 60 62 64 66 347 345 343 341 339 240 241 242 177 178 179 481 482 483 32 30 29 31"/>
    </vehicle>

    <vehicle id="584_0" type="car" depart="26182.00" arrival="26235.00">
        <route edges="538 536 535 537 539 541 543 545 547 549 111 113 115 117 119 121 345 343 341 339 240 241"/>
    </vehicle>

    <vehicle id="732_0" type="car" depart="26016.00" arrival="26246.00">
        <route edges="244 243 245 247 29 31 442 443 185 186 187 387 388 389 390 413 97 99 383 381 379 377 375 373 371 369 367 365 363 361 359 358 360 362 364 366 368 370 372 374"/>
    </vehicle>

    <vehicle id="471_0" type="car" depart="26096.00" arrival="26265.00">
        <route edges="550 548 546 544 542 540 538 536 535 537 539 541 543 545 547 549 111 113 115 117 119 121 345 343 341 339 240 241 242 177 178 179 180 181 182 183 184 185 186 187 387 388 389 390 413 97 99 613 615 617 130 132 134 136 138 140 142 144 146 148 149 147 145 143 141 139 137 135"/>
    </vehicle>

    <vehicle id="967_0" type="car" depart="26086.00" arrival="26268.00">
        <route edges="465 463 461 459 457 455 453 589 587 585 627 629 613 615 617 619 621 623 625 600 602 204 206 208 210 212 214 216 218 220 222 224 226 228 230"/>
    </vehicle>

    <vehicle id="272_0" type="car" depart="26135.00" arrival="26379.00">
        <route edges="350 352 354 356 609 610 611 612 255 256 257 258 259 260 261 262 263 264 265 266 267 268 269 270 307 308 309 310 311 312 296 297 298 299 300 301 302 123"/>
    </vehicle>

    <vehicle id="844_0" type="car" depart="26354.00" arrival="26384.00">
        <route edges="598 599 597 595 90 91 92 93 94 95 96 575 573 566 567 568"/>
    </vehicle>

    <vehicle id="406_0" type="car" depart="26011.00" arrival="26396.00">
        <route edges="562 564 191 192 193 194 195 196 197 249 250 251 252 253 254 255 576 577 578 590 592 594 596 598 509 511 513 515 517 519 521 523 525 527 529 626 624 622 620 130 132 134 136 138 140 142 144 146 148 149 147 145 143 141 139 137 135"/>
    </vehicle>

    <vehicle id="874_0" type="car" depart="26227.00" arrival="26508.00">
        <route edges="10 8 6 4 2 17 19 21 23 25 27 29 31 442 443 185 186 187 387 388 389 390 413 97 99 613 615 617 130 132 134 136 138 140 142 144 146 148 149 147 145"/>
    </vehicle>

    <vehicle id="755_0" type="car" depart="26210.00" arrival="26526.00">
        <route edges="446 448 450 280 278 276 13 14 15 16 270 271 272 273 274 249 250 604 605 606 607 608 357 355 353 351 349 347 345 343 341 339 240 241 242 177 178 179 180 181 182 183 184 185 186 187 387 388 389 390 413 579"/>
    </vehicle>

    <vehicle id="44_0" type="car" depart="26395.00" arrival="26551.00">
        <route edges="241 242 177 178 179 180 181 182 183 184 185 186 187 387 388 389 390 413 579 580 581 582 583 584 586 491 493 152 154 155 156 157 158 159 160 161 162 163 164"/>
    </vehicle>

    <vehicle id="619_0" type="car" depart="26353.00" arrival="26573.00">
        <route edges="228 230 232 234 236 238 239 237 235 233 231 229 227 225 223 221 219 217 215 213 211 209 207 205 603 601 530 528 526 524 522 520 518 516 514 512 510 599 597 595 593 591 472 473 474 260 261 262 263 264 265 266 267 268 269 270 271 272 273 274 249 250 604 605 606 607 608 357 355 353 351 349 348 350 352 354 356 609 610"/>
    </vehicle>

    <vehicle id="304_0" type="car" depart="26429.00" arrival="26587.00">
        <route edges="326 324 389 390 569 570 571 287 288 289 290 291 292 293 294 295 408 409 410 338 340 342 344 346 348 350 352 354 356 609 610 611 612 255 576 577 578 590 592"/>
    </vehicle>

    <vehicle id="118_0" type="car" depart="26272.00" arrival="26657.00">
        <route edges="249 250 251 252 253 254 255 256 257 258 259 260 261 262 263 264 265 484 485 275 277 279 451 449 447 445 170 168 167 169"/>
    </vehicle>

    <vehicle id="88_0" type="car" depart="26394.00" arrival="26667.00">
        <route edges="449 448 450 280 278 276 13 14 15 16 270 271 272 273 274 249 250 251 252 253 254 255 576 577 578 590"/>
    </vehicle>

    <vehicle id="658_0" type="car" depart="26559.00" arrival="26667.00">
        <route edges="285 286 284 282 280 278 276 13 14 15 16 270 271 272 273 274 249 250 251 252 253 254 255 576 577 578 590 592 594 596 598 509 511 513 515 517 519 521 523 525 527 529 626 624 622 441 439 437"/>
    </vehicle>

    <vehicle id="654_0" type="car" depart="26697.00" arrival="26745.00">
        <route edges="253 254 255 256 257 258 259 260 261 262 263 264 265 484 485 275 277 279 281 283 285"/>
    </vehicle>

    <vehicle id="605_0" type="car" depart="26659.00" arrival="26751.00">
        <route edges="229 227 225 223 221 219 217 215 213 211 209 207 205 603 601 530 528 526 524 522 520 518 516 514 512 510 599 597 595 593 591 472 473 474 260 261 262 263 264 265 266 267 268 269 270 271 272 273 274 249 250 251 252 253 254 255 576 577 578"/>
    </vehicle>

    <vehicle id="91_0" type="car" depart="26227.00" arrival="26754.00">
        <route edges="224 226 228 230 232 234 236 238 239 237 235 233 231 229 227 225 223 221 219 217 215 213 211 209 207 205 603 601 530 528 526 524 522 520 518 516 514 512 510 599 597 595 593 591 472 473 474 260 261 262 263 264 265 484 485 275 277 279 451 449 447 445 170 168 167 169"/>
    </vehicle>

    <vehicle id="421_0" type="car" depart="26757.00" arrival="26776.00">
        <route edges="190 566 567 568 265 266 267 268 269 270 271 272 273 274 249 250 251 252 253 254"/>
    </vehicle>

    <vehicle id="177_0" type="car" depart="26649.00" arrival="26830.00">
        <route edges="608 357 355 353 351 349 347 345 343 341 339 240 241 242 177 178 179 180 181 182 183 184 185 186 187 387 388 389 390 413 97 99 613 615 617 130 132 134 136 138 140 142 144 146 148 149 147 145 143 141"/>
    </vehicle>

    <vehicle id="706_0" type="car" depart="26782.00" arrival="26850.00">
        <route edges="421 422 330 328 326 324 389 390 413 579 580 581 582 583"/>
    </vehicle>

    <vehicle id="97_0" type="car" depart="26558.00" arrival="26897.00">
        <route edges="9 46 48 50 52 54 56 58 60 62 64 66 348 350 352 354 356 609 610 611 612 255 256 257 258 259 260 188 189"/>
    </vehicle>

    <vehicle id="772_0" type="car" depart="26776.00" arrival="26992.00">
        <route edges="71 69 110 193 194 195 196 197 249 250 604 605 606 607 608 357 355 353 351 349 347 345 343 341 339 240 241 242 177 178 179 180 181 182 183 184 185 186 187 387 388 389 390 413 97 99 613 615 497 498"/>
    </vehicle>

    <vehicle id="174_0" type="car" depart="26917.00" arrival="27007.00">
        <route edges="4 2 17 19 21 22"/>
    </vehicle>

    <vehicle id="128_0" type="car" depart="26977.00" arrival="27050.00">
        <route edges="388 389 390 569 570 571 287 288 289 290 291 292 293 294 295 408 409 410 338 340 342 344 346 348 350 352 354 356 609 610 611 612 255 256 257 258"/>
    </vehicle>

    <vehicle id="162_0" type="car" depart="26802.00" arrival="27059.00">
        <route edges="362 364 366 368 370 372 374 376 378 380 382 100 98 414 569 570 571 287 288 289 290 291 292 293 294 295 555 556 557 177 178 179 481 482 483 32 30 28 26 24 22 20 18 1 3 5 7 9"/>
    </vehicle>

    <vehicle id="754_0" type="car" depart="26983.00" arrival="27078.00">
        <route edges="500 414 569 570 571 287 288 289 290 291 292 293 294 295 408 409 410 338 340 342 344 346 348 350 352 354 356 609 610 611 612 255 256 257 258 259 260 261 262 263 264 265 484 485 13"/>
    </vehicle>

    <vehicle id="119_0" type="car" depart="27058.00" arrival="27154.00">
        <route edges="385 291 292 293 294 295 555 556 557 177 178 179 180 181 182 183 184 185 186 187 303 304 305 306 287 288 384 432 434 436 438 440 621 623 625 530 528 526 524 522"/>
    </vehicle>

    <vehicle id="260_0" type="car" depart="27161.00" arrival="27233.00">
        <route edges="85 83 81 79 77 496 565"/>
    </vehicle>

    <vehicle id="476_0" type="car" depart="26849.00" arrival="27254.00">
        <route edges="462 464 466 468 470 471 469 467 465 463 461 459 457 455 453 589 587 585 627 629 100 98 414 569 570 571 287 288 289 290 291 292 293 294 295 408 409 410 338 340 342 344 346 348 350 352 354 356 609 610 611 612 255 256 257 258 259 260 261 262 263 264 265 266 267 268 269 270 307 308 309 310"/>
    </vehicle>

    <vehicle id="90_0" type="car" depart="27155.00" arrival="27271.00">
        <route edges="257 258 259 260 261 262 263 264 265 266 267 268 269 270 271 272 273 274 249 250 251 252 253 254 255 576 577 578 590 592 594 596 598 509 511 513 515 517 519 521 523 525 527 529 626 624 622 621"/>
    </vehicle>

    <vehicle id="768_0" type="car" depart="27168.00" arrival="27319.00">
        <route edges="373 371 369 367 365 363 361 359 358 360 362 364 366 368 370 372 374 376 378 380 382 613 615 617 619 441 439 437 435 433"/>
    </vehicle>

    <vehicle id="59_0" type="car" depart="26993.00" arrival="27347.00">
        <route edges="593 591 472 473 474 260 261 262 263 264 265 484 485 275 277 279 451 449 447 445 170 168"/>
    </vehicle>

    <vehicle id="926_0" type="car" depart="27301.00" arrival="27390.00">
        <route edges="533 535 537 539 541 543 545 547 549 111 113 115 117 119 121 346 348 350 352 354 356 609 610 611 612 255"/>
    </vehicle>

    <vehicle id="750_0" type="car" depart="27146.00" arrival="27395.00">
        <route edges="57 407 201 562 564 495 296 297 298 299"/>
    </vehicle>

    <vehicle id="799_0" type="car" depart="27354.00" arrival="27469.00">
        <route edges="457 455 453 589 587 585 627 629 100 98 579 580 581 582 583"/>
    </vehicle>

    <vehicle id="461_0" type="car" depart="27426.00" arrival="27487.00">
        <route edges="109 110 193 194 195 196 197 249 250 251 252 253 254 255 256 257 258 259 260 188 189 190 572 574 575"/>
    </vehicle>

    <vehicle id="352_0" type="car" depart="27204.00" arrival="27499.00">
        <route edges="206 208 210 212 214 216 218 220 222 224 226 228 230 232 234 236 238 239 237 235 233 231 229 227 225 223 221 219 217 215 213 211 209 207 205 603 601 530 528 526 524 522 520 518 516 514 512 510 599 597 595 593 591 472 473 474 260 261 262 263 264 265 266 267 268 269 270 307 308 309 310 311 400 402"/>
    </vehicle>

    <vehicle id="240_0" type="car" depart="27439.00" arrival="27503.00">
        <route edges="483 442 443 185 186 187 387 388 389 390 413 97 99 630 628 627"/>
    </vehicle>

    <vehicle id="839_0" type="car" depart="27372.00" arrival="27512.00">
        <route edges="455 453 589 587 585 627 629 100 98 414 569 570 571 287 288 289 290 291 292 293 294 295 408 409 410 338 340 342 344 122"/>
    </vehicle>

    <vehicle id="383_0" type="car" depart="27266.00" arrival="27523.00">
        <route edges="516 514 512 510 599 597 595 593 591 472 473 474 260 261 262 263 264 265 266 267 268 269 270 271 272 273 274 249 250 604 605 606 607 608 357 355 353 351 349 347 345 343 341 339 240 241 242 177 178 179 481 482 483 32 30 28 26 24 22 20 18 1"/>
    </vehicle>

    <vehicle id="966_0" type="car" depart="27266.00" arrival="27526.00">
        <route edges="434 436 438 440 621 623 625 530 528 526 524 522 520 518 516 514 512 510 599 597 595 593 591 472 473 474 260 261 262 263 264 265 266 267 268 269 270 307 308 309 310 311 312 76"/>
    </vehicle>

    <vehicle id="292_0" type="car" depart="27350.00" arrival="27531.00">
        <route edges="183 184 185 186 187 303 304 305 306 287 288 289 290 291 292 293 294 295 555 556 557 177 178 179 481 482 483 32 30 28 26 24 22 20 18 1 3 4 2"/>
    </vehicle>

    <vehicle id="993_0" type="car" depart="27423.00" arrival="27534.00">
        <route edges="104 193 194 195 196 197 249 250 251 252 253 254 255 576 577 578 590 592 594 596 598 509 511 513 515 517 519 521 523 525 527 529 600 602 204 206 208 210 212 214 216 218"/>
    </vehicle>

    <vehicle id="651_0" type="car" depart="27266.00" arrival="27546.00">
        <route edges="18 1 3 5 7 9 46 48 50 52 54 55 53 51 49"/>
    </vehicle>

    <vehicle id="610_0" type="car" depart="27324.00" arrival="27557.00">
        <route edges="433 385 291 292 293 294 295 408 409 410 338 340 342 344 346 67 65 63 61 108 106 104 109 311"/>
    </vehicle>

    <vehicle id="454_0" type="car" depart="27499.00" arrival="27593.00">
        <route edges="423 424 425 426 427 428 429 430 27 29 31 442 443 185 186 187 387 388 389 390 413 579 580"/>
    </vehicle>

    <vehicle id="66_0" type="car" depart="27589.00" arrival="27647.00">
        <route edges="265 266 267 268 269 270 271 272 273 274 249 250 604 605 606 607 608 357 355 353 351 349 348 350 352"/>
    </vehicle>

    <vehicle id="144_0" type="car" depart="27561.00" arrival="27655.00">
        <route edges="193 475 477 479 61 59"/>
    </vehicle>

    <vehicle id="290_0" type="car" depart="27571.00" arrival="27662.00">
        <route edges="374 376 378 380 382 630 628 584 586 588 452 454"/>
    </vehicle>

    <vehicle id="575_0" type="car" depart="27509.00" arrival="27674.00">
        <route edges="18 17 19 21 23 25 27 29 31 442 443 185 186 187 387 388 389 390 413 579 580 581 582 583 584 586 587 585"/>
    </vehicle>

    <vehicle id="599_0" type="car" depart="27539.00" arrival="27675.00">
        <route edges="58 60 62 64 66 348 350 352 354 356 609 610 611 612 255 576 577 578 590 592 594 596 598 509 511 513 515 517 519 521 523 525 527 529 600 602 204"/>
    </vehicle>

    <vehicle id="432_0" type="car" depart="27532.00" arrival="27682.00">
        <route edges="376 378 380 382 100 98 414 569 570 571 287 288 289 290 291 292 293 294 295 408 409 410 338 340 342 344 346 348 350 352 354 356 609 610 611 612 255 256 257 258 259 260 261 262 263 264 265 266 267 268 269 270 307 308 309"/>
    </vehicle>

    <vehicle id="817_0" type="car" depart="27408.00" arrival="27743.00">
        <route edges="563 562 564 191 192 193 194 195 196 197 249 250 251 252 253 254 255 576 577 578 590 592 594 596 598 509 511 513 515 517 519 521 523 525 527 529 600 602 204 206 208 210 212 214 216 218 220 222 224 226 228 230 232 234 236 238 239 237 235 233 231"/>
    </vehicle>

    <vehicle id="938_0" type="car" depart="27462.00" arrival="27743.00">
        <route edges="255 256 257 258 259 260 261 262 263 264 265 266 267 268 269 270 271 272 273 274 249 250 604 605 606 607 608 357 355 353 351 349 347 345 343 341 339 240 241 242 177 178 179 180 181 182 183 184 185 186 187 387 388 389 390 413 579 580 581 582 583 584 586 588 452 454 456 458 460 462 464 466 468 470"/>
    </vehicle>

    <vehicle id="603_0" type="car" depart="27516.00" arrival="27754.00">
        <route edges="504 502 23 25 27 29 31 442 443 185 186 187 303 304 305 306 287 288 289 290 291 292 293 294 295 408 409 410 338 340 342 344 346 348 350 352 354 356 609 610 611 612 255 576 577 578 472 473"/>
    </vehicle>

    <vehicle id="50_0" type="car" depart="27618.00" arrival="27776.00">
        <route edges="309 310 110 193 194 195 196 197 249 250 604 605 606 607 608 357 355 353 351 349 347 122 120 118 116 114 112 550 548 546 544 542 540"/>
    </vehicle>

    <vehicle id="3_0" type="car" depart="27170.00" arrival="27796.00">
        <route edges="445 170 168 167 169 444 446 448 450 280 278 276 13 14 15 16 270 271 272 273 274 249 250 604 605 606 607 608 357 355 353 351 349 347 345 343 341 339 240 241 242 177 178 179 180 181 182 183 184 185 186 187 387 388 389 390 413 579 580 581 582 583 584 586 491 493 152 154 155 156 157 158 159 160 161 162 163"/>
    </vehicle>

    <vehicle id="325_0" type="car" depart="27699.00" arrival="27823.00">
        <route edges="17 19 21 23 25 27 29 31 442 443 185 186 187 303 304 305 306 287 288 289 290 291 292 293 294 295 555"/>
    </vehicle>

    <vehicle id="977_0" type="car" depart="27653.00" arrival="27828.00">
        <route edges="173 175 506 504 502 22 20 18 17"/>
    </vehicle>

    <vehicle id="867_0" type="car" depart="27661.00" arrival="27866.00">
        <route edges="269 270 271 272 273 274 249 250 604 605 606 607 608 357 355 353 351 349 347 345 343 341 339 240 241 242 177 178 179 180 181 182 183 184 185 186 187 387 388 389 390 413 97 99 383 381 379 377 375 373 371 369 367 365 363 361 359 358 360 362 364 366 368"/>
    </vehicle>

    <vehicle id="559_0" type="car" depart="27515.00" arrival="27895.00">
        <route edges="82 84 86 88 89 87 85 83 81 446 448 450 280 278 276 13 14 15 16 270 271 272 273 274 249 250 604 605 606 607 608 357 355 353 351 349 347 345 343 341 339 240 241 242 177 178 179 180 181 182 183 184 185 186 187 387 388 389 390 413"/>
    </vehicle>

    <vehicle id="681_0" type="car" depart="27762.00" arrival="27899.00">
        <route edges="227 225 223 221 219 217 215 213 211 209 207 205 603 601 530 528 526 524 522 520 518 516 514 512 510 599 597 595 593 591 472 473 474 260 261 262 263 264 265 266 267 268 269 270 307 308 309 310 110 193 475"/>
    </vehicle>

    <vehicle id="255_0" type="car" depart="27761.00" arrival="27907.00">
        <route edges="280 278 276 13 14 15 16 270 271 272 273 274 249 250 604 605 606 607 608 357 355 353 351 349 67 65 63 61 59 57"/>
    </vehicle>

    <vehicle id="125_0" type="car" depart="27891.00" arrival="27911.00">
        <route edges="177 178 179 180 181 182 183 184 185 186 187 303 304 305 306 287 288 289 290 291 292 293 294"/>
    </vehicle>

    <vehicle id="576_0" type="car" depart="27802.00" arrival="27933.00">
        <route edges="333 334 335 336 337 310 110 193 194 195 196 197 249 250 604 605 606 607 608 357 355 353 351 349 347 122 120 118"/>
    </vehicle>

    <vehicle id="540_0" type="car" depart="27749.00" arrival="27991.00">
        <route edges="64 66 347 345 343 341 339 240 241 242 177 178 179 180 181 182 183 184 185 186 187 387 388 389 390 413 579 580 581 582 583 584 586 588 452 454 456 458 460 462 464 466 468 470 471 469 467 465"/>
    </vehicle>

    <vehicle id="410_0" type="car" depart="27974.00" arrival="28095.00">
        <route edges="107 60 62 64 66 347 122 120 118 116 114 112 550 548 546 544 542 540 538 536 535 537 539 541"/>
    </vehicle>

    <vehicle id="98_0" type="car" depart="28046.00" arrival="28160.00">
        <route edges="607 608 357 355 353 351 349 347 345 343 341 339 240 241 242 177 178 179 180 181 182 183 184 185 186 187 303 304 305 306 287 288 384 432"/>
    </vehicle>

    <vehicle id="80_0" type="car" depart="27954.00" arrival="28171.00">
        <route edges="605 606 607 608 357 355 353 351 349 348 350 352 354 356 609 610 611 612 255 576 577 578 590 592 594 596 598 509 511 513 515 517 519 521 523 525 527 529 600 602 204 206 208 210 212 214 216 218 220 222 224 226 228 230 232 234 236 238 239 237 235 233 231 229 227 225 223 221"/>
    </vehicle>

    <vehicle id="835_0" type="car" depart="27730.00" arrival="28222.00">
        <route edges="493 494 492 587 585 627 629 100 98 414 569 570 571 287 288 289 290 291 292 293 294 295 408 409 410 338 340 342 344 346 67 65 63 61 108 203 405 403 401 312 296 297 298 299 300"/>
    </vehicle>

    <vehicle id="744_0" type="car" depart="28015.00" arrival="28275.00">
        <route edges="297 298 299 300 301 302 123 124 125 126 127 128 129 191 192 193 194 195 196 197 249 250 251 252 253 254 255 576 577 578 590 592 594 596 598 508"/>
    </vehicle>

    <vehicle id="842_0" type="car" depart="28104.00" arrival="28319.00">
        <route edges="202 106 104 193 194 195 196 197 249 250 251 252 253 254 255 576 577 578 590 592 594 596 598 509 511 513 515 517 519 521 523 525 527 529 600"/>
    </vehicle>

    <vehicle id="544_0" type="car" depart="28054.00" arrival="28339.00">
        <route edges="406 407 202 106 104 109 68 70 72 74 75"/>
    </vehicle>

    <vehicle id="434_0" type="car" depart="28150.00" arrival="28346.00">
        <route edges="350 352 354 356 609 610 611 612 255 576 577 578 590 592 594 596 598 509 511 513 515 517 519 521 523 525 527 529 600 602 204 206 208 210 212 214 216 218 220 222 224 226 228 230 232 234 236 238 239 237 235 233 231 229 227 225 223 221 219 217 215"/>
    </vehicle>

    <vehicle id="797_0" type="car" depart="28100.00" arrival="28389.00">
        <route edges="523 525 527 529 530 528 526 524 522 520 518 516 514 512 510 599 597 595 593 591 472 473 474 260 261 262 263 264 265 266 267 268 269 270 307 308 309 310 311 400 402 404 202"/>
    </vehicle>

    <vehicle id="945_0" type="car" depart="28349.00" arrival="28402.00">
        <route edges="346 348 350 352 354 356 609 610 611 612 255 256 257 258 259 260 261 262 263 264 265 266 267 268 269 270 271 272 273 274 249 250 251 252 253 254"/>
    </vehicle>

    <vehicle id="765_0" type="car" depart="28120.00" arrival="28422.00">