<?xml version="1.0" encoding="UTF-8"?>

<!-- generated on 2022-12-12 09:17:44 by Eclipse SUMO sumo Version 1.15.0
<configuration xmlns:xsi="http://www.w3.org/2001/XMLSchema-instance" xsi:noNamespaceSchemaLocation="http://sumo.dlr.de/xsd/sumoConfiguration.xsd">

    <input>
        <net-file value="MASA.net.xml"/>
        <route-files value="plans/plans100.rou.xml"/>
    </input>

    <output>
        <summary-output value="output/100Veh/summary.xml"/>
        <tripinfo-output value="output/100Veh/tripinfos.xml"/>
        <vehroute-output value="output/100Veh/vehroute.xml"/>
        <statistic-output value="output/100Veh/stats.xml"/>
    </output>

    <time>
        <begin value="0"/>
        <end value="86400"/>
        <step-length value="1"/>
    </time>

    <traci_server>
        <remote-port value="36499"/>
    </traci_server>

</configuration>
-->

<tripinfos xmlns:xsi="http://www.w3.org/2001/XMLSchema-instance" xsi:noNamespaceSchemaLocation="http://sumo.dlr.de/xsd/tripinfo_file.xsd">
    <tripinfo id="39_0" depart="25328.00" departLane="439_0" departPos="5.10" departSpeed="0.00" departDelay="0.00" arrival="25555.00" arrivalLane="407_0" arrivalPos="47.89" arrivalSpeed="3.59" duration="227.00" routeLength="917.60" waitingTime="0.00" waitingCount="0" stopTime="0.00" timeLoss="33.74" rerouteNo="1" devices="vehroute_39_0 tripinfo_39_0 routing_39_0" vType="car" speedFactor="0.94" vaporized=""/>
    <tripinfo id="3_0" depart="25219.00" departLane="445_0" departPos="5.10" departSpeed="0.00" departDelay="0.00" arrival="25771.00" arrivalLane="163_0" arrivalPos="4.90" arrivalSpeed="4.02" duration="552.00" routeLength="2481.59" waitingTime="0.00" waitingCount="0" stopTime="0.00" timeLoss="74.09" rerouteNo="1" devices="vehroute_3_0 tripinfo_3_0 routing_3_0" vType="car" speedFactor="1.06" vaporized=""/>
    <tripinfo id="10_0" depart="26193.00" departLane="151_0" departPos="5.10" departSpeed="0.00" departDelay="0.00" arrival="26401.00" arrivalLane="197_0" arrivalPos="0.20" arrivalSpeed="3.69" duration="208.00" routeLength="1115.82" waitingTime="0.00" waitingCount="0" stopTime="0.00" timeLoss="27.31" rerouteNo="1" devices="vehroute_10_0 tripinfo_10_0 routing_10_0" vType="car" speedFactor="1.01" vaporized=""/>
    <tripinfo id="25_0" depart="28088.00" departLane="279_0" departPos="5.10" departSpeed="0.00" departDelay="0.00" arrival="28202.00" arrivalLane="435_0" arrivalPos="5.15" arrivalSpeed="3.71" duration="114.00" routeLength="894.69" waitingTime="0.00" waitingCount="0" stopTime="0.00" timeLoss="16.63" rerouteNo="1" devices="vehroute_25_0 tripinfo_25_0 routing_25_0" vType="car" speedFactor="1.08" vaporized=""/>
    <tripinfo id="42_0" depart="28206.00" departLane="256_0" departPos="0.20" departSpeed="0.00" departDelay="0.00" arrival="28291.00" arrivalLane="218_0" arrivalPos="9.21" arrivalSpeed="13.76" duration="85.00" routeLength="902.87" waitingTime="0.00" waitingCount="0" stopTime="0.00" timeLoss="10.66" rerouteNo="1" devices="vehroute_42_0 tripinfo_42_0 routing_42_0" vType="car" speedFactor="1.03" vaporized=""/>
    <tripinfo id="35_0" depart="28300.00" departLane="23_0" departPos="5.10" departSpeed="0.00" departDelay="0.00" arrival="28504.00" arrivalLane="370_0" arrivalPos="4.67" arrivalSpeed="5.66" duration="204.00" routeLength="1054.30" waitingTime="0.00" waitingCount="0" stopTime="0.00" timeLoss="23.64" rerouteNo="1" devices="vehroute_35_0 tripinfo_35_0 routing_35_0" vType="car" speedFactor="0.83" vaporized=""/>
    <tripinfo id="15_0" depart="28712.00" departLane="549_0" departPos="1.89" departSpeed="0.00" departDelay="0.00" arrival="28811.00" arrivalLane="283_0" arrivalPos="25.92" arrivalSpeed="3.45" duration="99.00" routeLength="534.75" waitingTime="0.00" waitingCount="0" stopTime="0.00" timeLoss="14.01" rerouteNo="1" devices="vehroute_15_0 tripinfo_15_0 routing_15_0" vType="car" speedFactor="1.05" vaporized=""/>
    <tripinfo id="1_0" depart="29344.00" departLane="19_0" departPos="5.10" departSpeed="0.00" departDelay="0.00" arrival="29561.00" arrivalLane="578_0" arrivalPos="9.49" arrivalSpeed="2.42" duration="217.00" routeLength="1267.84" waitingTime="0.00" waitingCount="0" stopTime="0.00" timeLoss="22.82" rerouteNo="1" devices="vehroute_1_0 tripinfo_1_0 routing_1_0" vType="car" speedFactor="0.89" vaporized=""/>
    <tripinfo id="47_0" depart="29618.00" departLane="21_0" departPos="5.10" departSpeed="0.00" departDelay="0.00" arrival="29830.00" arrivalLane="529_0" arrivalPos="0.20" arrivalSpeed="12.95" duration="212.00" routeLength="1561.74" waitingTime="0.00" waitingCount="0" stopTime="0.00" timeLoss="23.19" rerouteNo="1" devices="vehroute_47_0 tripinfo_47_0 routing_47_0" vType="car" speedFactor="0.94" vaporized=""/>
    <tripinfo id="9_0" depart="30106.00" departLane="495_0" departPos="5.10" departSpeed="0.00" departDelay="0.00" arrival="30181.00" arrivalLane="200_0" arrivalPos="193.60" arrivalSpeed="3.66" duration="75.00" routeLength="290.79" waitingTime="0.00" waitingCount="0" stopTime="0.00" timeLoss="10.53" rerouteNo="1" devices="vehroute_9_0 tripinfo_9_0 routing_9_0" vType="car" speedFactor="1.09" vaporized=""/>
    <tripinfo id="11_0" depart="30078.00" departLane="375_0" departPos="5.10" departSpeed="0.00" departDelay="0.00" arrival="30448.00" arrivalLane="176_0" arrivalPos="117.52" arrivalSpeed="6.41" duration="370.00" routeLength="1700.15" waitingTime="0.00" waitingCount="0" stopTime="0.00" timeLoss="50.80" rerouteNo="1" devices="vehroute_11_0 tripinfo_11_0 routing_11_0" vType="car" speedFactor="0.86" vaporized=""/>
    <tripinfo id="37_0" depart="30648.00" departLane="522_0" departPos="5.10" departSpeed="0.00" departDelay="0.00" arrival="30809.00" arrivalLane="213_0" arrivalPos="26.06" arrivalSpeed="13.07" duration="161.00" routeLength="2032.58" waitingTime="0.00" waitingCount="0" stopTime="0.00" timeLoss="16.96" rerouteNo="1" devices="vehroute_37_0 tripinfo_37_0 routing_37_0" vType="car" speedFactor="1.03" vaporized=""/>
    <tripinfo id="17_0" depart="30812.00" departLane="404_0" departPos="5.10" departSpeed="0.00" departDelay="0.00" arrival="30917.00" arrivalLane="78_0" arrivalPos="53.36" arrivalSpeed="4.15" duration="105.00" routeLength="393.24" waitingTime="0.00" waitingCount="0" stopTime="0.00" timeLoss="14.24" rerouteNo="1" devices="vehroute_17_0 tripinfo_17_0 routing_17_0" vType="car" speedFactor="1.05" vaporized=""/>
    <tripinfo id="8_0" depart="30819.00" departLane="224_0" departPos="5.10" departSpeed="0.00" departDelay="0.00" arrival="31116.00" arrivalLane="12_0" arrivalPos="46.77" arrivalSpeed="4.52" duration="297.00" routeLength="2396.79" waitingTime="0.00" waitingCount="0" stopTime="0.00" timeLoss="34.09" rerouteNo="1" devices="vehroute_8_0 tripinfo_8_0 routing_8_0" vType="car" speedFactor="1.12" vaporized=""/>
    <tripinfo id="23_0" depart="31772.00" departLane="340_0" departPos="5.10" departSpeed="0.00" departDelay="0.00" arrival="31825.00" arrivalLane="610_0" arrivalPos="14.54" arrivalSpeed="7.48" duration="53.00" routeLength="387.14" waitingTime="0.00" waitingCount="0" stopTime="0.00" timeLoss="6.03" rerouteNo="1" devices="vehroute_23_0 tripinfo_23_0 routing_23_0" vType="car" speedFactor="0.99" vaporized=""/>
    <tripinfo id="46_0" depart="31851.00" departLane="523_0" departPos="5.10" departSpeed="0.00" departDelay="0.00" arrival="31898.00" arrivalLane="621_0" arrivalPos="88.04" arrivalSpeed="6.23" duration="47.00" routeLength="282.28" waitingTime="0.00" waitingCount="0" stopTime="0.00" timeLoss="8.27" rerouteNo="1" devices="vehroute_46_0 tripinfo_46_0 routing_46_0" vType="car" speedFactor="0.93" vaporized=""/>
    <tripinfo id="18_0" depart="32043.00" departLane="242_0" departPos="0.20" departSpeed="0.00" departDelay="0.00" arrival="32077.00" arrivalLane="627_0" arrivalPos="1.93" arrivalSpeed="4.15" duration="34.00" routeLength="214.40" waitingTime="0.00" waitingCount="0" stopTime="0.00" timeLoss="5.20" rerouteNo="1" devices="vehroute_18_0 tripinfo_18_0 routing_18_0" vType="car" speedFactor="0.94" vaporized=""/>
    <tripinfo id="49_0" depart="32001.00" departLane="543_0" departPos="3.65" departSpeed="0.00" departDelay="0.00" arrival="32088.00" arrivalLane="250_0" arrivalPos="1.22" arrivalSpeed="6.14" duration="87.00" routeLength="472.26" waitingTime="0.00" waitingCount="0" stopTime="0.00" timeLoss="9.97" rerouteNo="1" devices="vehroute_49_0 tripinfo_49_0 routing_49_0" vType="car" speedFactor="0.88" vaporized=""/>
    <tripinfo id="7_0" depart="32049.00" departLane="222_0" departPos="5.10" departSpeed="0.00" departDelay="0.00" arrival="32209.00" arrivalLane="190_0" arrivalPos="9.74" arrivalSpeed="7.49" duration="160.00" routeLength="1777.09" waitingTime="0.00" waitingCount="0" stopTime="0.00" timeLoss="17.17" rerouteNo="1" devices="vehroute_7_0 tripinfo_7_0 routing_7_0" vType="car" speedFactor="0.94" vaporized=""/>
    <tripinfo id="0_0" depart="32252.00" departLane="582_0" departPos="5.10" departSpeed="0.00" departDelay="0.00" arrival="32287.00" arrivalLane="620_0" arrivalPos="18.91" arrivalSpeed="7.87" duration="35.00" routeLength="230.48" waitingTime="0.00" waitingCount="0" stopTime="0.00" timeLoss="4.89" rerouteNo="1" devices="vehroute_0_0 tripinfo_0_0 routing_0_0" vType="car" speedFactor="1.16" vaporized=""/>
    <tripinfo id="5_0" depart="32797.00" departLane="514_0" departPos="5.10" departSpeed="0.00" departDelay="0.00" arrival="32938.00" arrivalLane="217_0" arrivalPos="8.99" arrivalSpeed="14.10" duration="141.00" routeLength="1750.34" waitingTime="0.00" waitingCount="0" stopTime="0.00" timeLoss="15.23" rerouteNo="1" devices="vehroute_5_0 tripinfo_5_0 routing_5_0" vType="car" speedFactor="1.02" vaporized=""/>
    <tripinfo id="36_0" depart="33073.00" departLane="140_0" departPos="5.10" departSpeed="0.00" departDelay="0.00" arrival="33223.00" arrivalLane="373_0" arrivalPos="6.12" arrivalSpeed="6.56" duration="150.00" routeLength="680.40" waitingTime="0.00" waitingCount="0" stopTime="0.00" timeLoss="20.40" rerouteNo="1" devices="vehroute_36_0 tripinfo_36_0 routing_36_0" vType="car" speedFactor="0.97" vaporized=""/>
    <tripinfo id="32_0" depart="33239.00" departLane="264_0" departPos="0.20" departSpeed="0.00" departDelay="0.00" arrival="33337.00" arrivalLane="571_0" arrivalPos="0.20" arrivalSpeed="7.20" duration="98.00" routeLength="635.78" waitingTime="0.00" waitingCount="0" stopTime="0.00" timeLoss="10.56" rerouteNo="1" devices="vehroute_32_0 tripinfo_32_0 routing_32_0" vType="car" speedFactor="0.89" vaporized=""/>
    <tripinfo id="27_0" depart="33282.00" departLane="338_0" departPos="0.46" departSpeed="0.00" departDelay="0.00" arrival="33413.00" arrivalLane="523_0" arrivalPos="47.98" arrivalSpeed="11.42" duration="131.00" routeLength="957.23" waitingTime="0.00" waitingCount="0" stopTime="0.00" timeLoss="16.27" rerouteNo="1" devices="vehroute_27_0 tripinfo_27_0 routing_27_0" vType="car" speedFactor="0.83" vaporized=""/>
    <tripinfo id="20_0" depart="32970.00" departLane="325_0" departPos="5.10" departSpeed="0.00" departDelay="0.00" arrival="33446.00" arrivalLane="81_0" arrivalPos="56.51" arrivalSpeed="3.97" duration="476.00" routeLength="2106.13" waitingTime="0.00" waitingCount="0" stopTime="0.00" timeLoss="66.01" rerouteNo="1" devices="vehroute_20_0 tripinfo_20_0 routing_20_0" vType="car" speedFactor="1.01" vaporized=""/>
    <tripinfo id="48_0" depart="33449.00" departLane="333_0" departPos="5.06" departSpeed="0.00" departDelay="0.00" arrival="33699.00" arrivalLane="175_0" arrivalPos="117.52" arrivalSpeed="6.14" duration="250.00" routeLength="1271.15" waitingTime="0.00" waitingCount="0" stopTime="0.00" timeLoss="32.67" rerouteNo="1" devices="vehroute_48_0 tripinfo_48_0 routing_48_0" vType="car" speedFactor="0.87" vaporized=""/>
    <tripinfo id="16_0" depart="33538.00" departLane="206_0" departPos="5.10" departSpeed="0.00" departDelay="0.00" arrival="33737.00" arrivalLane="351_0" arrivalPos="28.70" arrivalSpeed="7.05" duration="199.00" routeLength="2103.91" waitingTime="0.00" waitingCount="0" stopTime="0.00" timeLoss="18.83" rerouteNo="1" devices="vehroute_16_0 tripinfo_16_0 routing_16_0" vType="car" speedFactor="0.92" vaporized=""/>
    <tripinfo id="13_0" depart="33652.00" departLane="192_0" departPos="5.10" departSpeed="0.00" departDelay="0.00" arrival="33785.00" arrivalLane="276_0" arrivalPos="7.28" arrivalSpeed="4.47" duration="133.00" routeLength="538.13" waitingTime="0.00" waitingCount="0" stopTime="0.00" timeLoss="18.79" rerouteNo="1" devices="vehroute_13_0 tripinfo_13_0 routing_13_0" vType="car" speedFactor="1.13" vaporized=""/>
    <tripinfo id="21_0" depart="33556.00" departLane="161_0" departPos="4.90" departSpeed="0.00" departDelay="0.00" arrival="33787.00" arrivalLane="237_0" arrivalPos="87.64" arrivalSpeed="12.12" duration="231.00" routeLength="1587.41" waitingTime="0.00" waitingCount="0" stopTime="0.00" timeLoss="30.82" rerouteNo="1" devices="vehroute_21_0 tripinfo_21_0 routing_21_0" vType="car" speedFactor="0.95" vaporized=""/>
    <tripinfo id="30_0" depart="33747.00" departLane="540_0" departPos="3.16" departSpeed="0.00" departDelay="0.00" arrival="33793.00" arrivalLane="65_0" arrivalPos="8.40" arrivalSpeed="4.14" duration="46.00" routeLength="250.24" waitingTime="0.00" waitingCount="0" stopTime="0.00" timeLoss="6.32" rerouteNo="1" devices="vehroute_30_0 tripinfo_30_0 routing_30_0" vType="car" speedFactor="1.18" vaporized=""/>
    <tripinfo id="29_0" depart="33713.00" departLane="138_0" departPos="5.10" departSpeed="0.00" departDelay="0.00" arrival="33835.00" arrivalLane="579_0" arrivalPos="3.83" arrivalSpeed="5.79" duration="122.00" routeLength="455.90" waitingTime="0.00" waitingCount="0" stopTime="0.00" timeLoss="19.92" rerouteNo="1" devices="vehroute_29_0 tripinfo_29_0 routing_29_0" vType="car" speedFactor="0.93" vaporized=""/>
    <tripinfo id="28_0" depart="33849.00" departLane="272_0" departPos="4.65" departSpeed="0.00" departDelay="0.00" arrival="33994.00" arrivalLane="211_0" arrivalPos="22.99" arrivalSpeed="15.28" duration="145.00" routeLength="1932.16" waitingTime="0.00" waitingCount="0" stopTime="0.00" timeLoss="17.79" rerouteNo="1" devices="vehroute_28_0 tripinfo_28_0 routing_28_0" vType="car" speedFactor="1.15" vaporized=""/>
    <tripinfo id="4_0" depart="33856.00" departLane="358_0" departPos="5.10" departSpeed="0.00" departDelay="0.00" arrival="34053.00" arrivalLane="233_0" arrivalPos="87.13" arrivalSpeed="13.91" duration="197.00" routeLength="1759.03" waitingTime="0.00" waitingCount="0" stopTime="0.00" timeLoss="20.68" rerouteNo="1" devices="vehroute_4_0 tripinfo_4_0 routing_4_0" vType="car" speedFactor="1.01" vaporized=""/>
    <tripinfo id="31_0" depart="34159.00" departLane="353_0" departPos="5.10" departSpeed="0.00" departDelay="0.00" arrival="34216.00" arrivalLane="187_0" arrivalPos="4.52" arrivalSpeed="7.44" duration="57.00" routeLength="419.46" waitingTime="0.00" waitingCount="0" stopTime="0.00" timeLoss="6.26" rerouteNo="1" devices="vehroute_31_0 tripinfo_31_0 routing_31_0" vType="car" speedFactor="0.99" vaporized=""/>
    <tripinfo id="45_0" depart="34140.00" departLane="468_0" departPos="5.10" departSpeed="0.00" departDelay="0.00" arrival="34343.00" arrivalLane="329_0" arrivalPos="84.41" arrivalSpeed="4.78" duration="203.00" routeLength="1074.88" waitingTime="0.00" waitingCount="0" stopTime="0.00" timeLoss="24.63" rerouteNo="1" devices="vehroute_45_0 tripinfo_45_0 routing_45_0" vType="car" speedFactor="1.17" vaporized=""/>
    <tripinfo id="33_0" depart="34430.00" departLane="2_0" departPos="0.20" departSpeed="0.00" departDelay="0.00" arrival="34628.00" arrivalLane="473_0" arrivalPos="7.36" arrivalSpeed="3.03" duration="198.00" routeLength="1312.14" waitingTime="0.00" waitingCount="0" stopTime="0.00" timeLoss="20.50" rerouteNo="1" devices="vehroute_33_0 tripinfo_33_0 routing_33_0" vType="car" speedFactor="1.02" vaporized=""/>
    <tripinfo id="14_0" depart="34843.00" departLane="610_0" departPos="5.10" departSpeed="0.00" departDelay="0.00" arrival="34860.00" arrivalLane="485_0" arrivalPos="6.27" arrivalSpeed="3.84" duration="17.00" routeLength="117.46" waitingTime="0.00" waitingCount="0" stopTime="0.00" timeLoss="3.03" rerouteNo="1" devices="vehroute_14_0 tripinfo_14_0 routing_14_0" vType="car" speedFactor="1.18" vaporized=""/>
    <tripinfo id="40_0" depart="34671.00" departLane="550_0" departPos="1.89" departSpeed="0.00" departDelay="0.00" arrival="34952.00" arrivalLane="562_0" arrivalPos="57.18" arrivalSpeed="3.45" duration="281.00" routeLength="1007.93" waitingTime="0.00" waitingCount="0" stopTime="0.00" timeLoss="46.63" rerouteNo="1" devices="vehroute_40_0 tripinfo_40_0 routing_40_0" vType="car" speedFactor="0.97" vaporized=""/>
    <tripinfo id="43_0" depart="34976.00" departLane="24_0" departPos="5.10" departSpeed="0.00" departDelay="0.00" arrival="35123.00" arrivalLane="359_0" arrivalPos="64.53" arrivalSpeed="7.35" duration="147.00" routeLength="1029.28" waitingTime="0.00" waitingCount="0" stopTime="0.00" timeLoss="14.18" rerouteNo="1" devices="vehroute_43_0 tripinfo_43_0 routing_43_0" vType="car" speedFactor="1.10" vaporized=""/>
    <tripinfo id="26_0" depart="35225.00" departLane="500_0" departPos="5.10" departSpeed="0.00" departDelay="0.00" arrival="35295.00" arrivalLane="208_0" arrivalPos="23.97" arrivalSpeed="11.81" duration="70.00" routeLength="429.93" waitingTime="0.00" waitingCount="0" stopTime="0.00" timeLoss="9.55" rerouteNo="1" devices="vehroute_26_0 tripinfo_26_0 routing_26_0" vType="car" speedFactor="0.90" vaporized=""/>
    <tripinfo id="38_0" depart="35475.00" departLane="179_0" departPos="4.97" departSpeed="0.00" departDelay="0.00" arrival="35582.00" arrivalLane="511_0" arrivalPos="17.32" arrivalSpeed="13.23" duration="107.00" routeLength="777.15" waitingTime="0.00" waitingCount="0" stopTime="0.00" timeLoss="14.52" rerouteNo="1" devices="vehroute_38_0 tripinfo_38_0 routing_38_0" vType="car" speedFactor="0.96" vaporized=""/>
    <tripinfo id="6_0" depart="35324.00" departLane="503_0" departPos="5.10" departSpeed="0.00" departDelay="0.00" arrival="35616.00" arrivalLane="213_0" arrivalPos="26.06" arrivalSpeed="14.07" duration="292.00" routeLength="2307.56" waitingTime="0.00" waitingCount="0" stopTime="0.00" timeLoss="33.38" rerouteNo="1" devices="vehroute_6_0 tripinfo_6_0 routing_6_0" vType="car" speedFactor="1.03" vaporized=""/>
    <tripinfo id="19_0" depart="36066.00" departLane="442_0" departPos="5.10" departSpeed="0.00" departDelay="0.00" arrival="36213.00" arrivalLane="227_0" arrivalPos="18.91" arrivalSpeed="14.41" duration="147.00" routeLength="1464.25" waitingTime="0.00" waitingCount="0" stopTime="0.00" timeLoss="17.52" rerouteNo="1" devices="vehroute_19_0 tripinfo_19_0 routing_19_0" vType="car" speedFactor="1.09" vaporized=""/>
    <tripinfo id="22_0" depart="36247.00" departLane="437_0" departPos="5.10" departSpeed="0.00" departDelay="0.00" arrival="36304.00" arrivalLane="99_0" arrivalPos="6.00" arrivalSpeed="7.79" duration="57.00" routeLength="324.47" waitingTime="0.00" waitingCount="0" stopTime="0.00" timeLoss="7.02" rerouteNo="1" devices="vehroute_22_0 tripinfo_22_0 routing_22_0" vType="car" speedFactor="1.04" vaporized=""/>
    <tripinfo id="34_0" depart="36168.00" departLane="465_0" departPos="5.10" departSpeed="0.00" departDelay="0.00" arrival="36351.00" arrivalLane="504_0" arrivalPos="351.39" arrivalSpeed="3.71" duration="183.00" routeLength="792.85" waitingTime="0.00" waitingCount="0" stopTime="0.00" timeLoss="26.09" rerouteNo="1" devices="vehroute_34_0 tripinfo_34_0 routing_34_0" vType="car" speedFactor="1.04" vaporized=""/>
    <tripinfo id="44_0" depart="36623.00" departLane="241_0" departPos="5.10" departSpeed="0.00" departDelay="0.00" arrival="36745.00" arrivalLane="164_0" arrivalPos="4.92" arrivalSpeed="3.44" duration="122.00" routeLength="620.95" waitingTime="0.00" waitingCount="0" stopTime="0.00" timeLoss="16.87" rerouteNo="1" devices="vehroute_44_0 tripinfo_44_0 routing_44_0" vType="car" speedFactor="1.09" vaporized=""/>
    <tripinfo id="41_0" depart="36911.00" departLane="66_0" departPos="0.80" departSpeed="0.00" departDelay="0.00" arrival="36955.00" arrivalLane="242_0" arrivalPos="0.20" arrivalSpeed="6.63" duration="44.00" routeLength="288.88" waitingTime="0.00" waitingCount="0" stopTime="0.00" timeLoss="5.06" rerouteNo="1" devices="vehroute_41_0 tripinfo_41_0 routing_41_0" vType="car" speedFactor="0.90" vaporized=""/>
    <tripinfo id="2_0" depart="36845.00" departLane="187_0" departPos="4.52" departSpeed="0.00" departDelay="0.00" arrival="37131.00" arrivalLane="199_0" arrivalPos="115.90" arrivalSpeed="3.71" duration="286.00" routeLength="1197.26" waitingTime="0.00" waitingCount="0" stopTime="0.00" timeLoss="42.92" rerouteNo="1" devices="vehroute_2_0 tripinfo_2_0 routing_2_0" vType="car" speedFactor="1.00" vaporized=""/>
    <tripinfo id="24_0" depart="39073.00" departLane="433_0" departPos="5.10" departSpeed="0.00" departDelay="0.00" arrival="39121.00" arrivalLane="342_0" arrivalPos="50.38" arrivalSpeed="6.05" duration="48.00" routeLength="202.16" waitingTime="0.00" waitingCount="0" stopTime="0.00" timeLoss="8.63" rerouteNo="1" devices="vehroute_24_0 tripinfo_24_0 routing_24_0" vType="car" speedFactor="0.88" vaporized=""/>
    <tripinfo id="12_0" depart="39774.00" departLane="345_0" departPos="5.10" departSpeed="0.00" departDelay="0.00" arrival="40011.00" arrivalLane="209_0" arrivalPos="23.97" arrivalSpeed="11.12" duration="237.00" routeLength="1855.89" waitingTime="0.00" waitingCount="0" stopTime="0.00" timeLoss="26.73" rerouteNo="1" devices="vehroute_12_0 tripinfo_12_0 routing_12_0" vType="car" speedFactor="0.85" vaporized=""/>
    <tripinfo id="35_0" depart="55210.00" departLane="370_0" departPos="4.67" departSpeed="0.00" departDelay="0.00" arrival="55387.00" arrivalLane="23_0" arrivalPos="135.89" arrivalSpeed="5.27" duration="177.00" routeLength="959.90" waitingTime="0.00" waitingCount="0" stopTime="0.00" timeLoss="20.87" rerouteNo="1" devices="vehroute_35_0 tripinfo_35_0 routing_35_0" vType="car" speedFactor="0.85" vaporized=""/>
    <tripinfo id="21_0" depart="58024.00" departLane="237_0" departPos="5.10" departSpeed="0.00" departDelay="0.00" arrival="58194.00" arrivalLane="161_0" arrivalPos="4.90" arrivalSpeed="4.36" duration="170.00" routeLength="1322.59" waitingTime="0.00" waitingCount="0" stopTime="0.00" timeLoss="21.57" rerouteNo="1" devices="vehroute_21_0 tripinfo_21_0 routing_21_0" vType="car" speedFactor="1.17" vaporized=""/>
    <tripinfo id="27_0" depart="58375.00" departLane="523_0" departPos="5.10" departSpeed="0.00" departDelay="0.00" arrival="58446.00" arrivalLane="338_0" arrivalPos="0.46" arrivalSpeed="6.32" duration="71.00" routeLength="377.05" waitingTime="0.00" waitingCount="0" stopTime="0.00" timeLoss="11.11" rerouteNo="1" devices="vehroute_27_0 tripinfo_27_0 routing_27_0" vType="car" speedFactor="1.02" vaporized=""/>
    <tripinfo id="12_0" depart="58754.00" departLane="209_0" departPos="5.10" departSpeed="0.00" departDelay="0.00" arrival="58853.00" arrivalLane="345_0" arrivalPos="80.07" arrivalSpeed="9.05" duration="99.00" routeLength="628.62" waitingTime="0.00" waitingCount="0" stopTime="0.00" timeLoss="16.16" rerouteNo="1" devices="vehroute_12_0 tripinfo_12_0 routing_12_0" vType="car" speedFactor="1.10" vaporized=""/>
    <tripinfo id="20_0" depart="59027.00" departLane="81_0" departPos="5.10" departSpeed="0.00" departDelay="0.00" arrival="59325.00" arrivalLane="325_0" arrivalPos="14.64" arrivalSpeed="3.98" duration="298.00" routeLength="1325.96" waitingTime="0.00" waitingCount="0" stopTime="0.00" timeLoss="44.67" rerouteNo="1" devices="vehroute_20_0 tripinfo_20_0 routing_20_0" vType="car" speedFactor="1.00" vaporized=""/>
    <tripinfo id="47_0" depart="59895.00" departLane="529_0" departPos="0.20" departSpeed="0.00" departDelay="0.00" arrival="60132.00" arrivalLane="21_0" arrivalPos="91.64" arrivalSpeed="6.44" duration="237.00" routeLength="1368.74" waitingTime="0.00" waitingCount="0" stopTime="0.00" timeLoss="28.33" rerouteNo="1" devices="vehroute_47_0 tripinfo_47_0 routing_47_0" vType="car" speedFactor="1.00" vaporized=""/>
    <tripinfo id="33_0" depart="60626.00" departLane="473_0" departPos="5.10" departSpeed="0.00" departDelay="0.00" arrival="60894.00" arrivalLane="2_0" arrivalPos="0.20" arrivalSpeed="3.25" duration="268.00" routeLength="1434.58" waitingTime="0.00" waitingCount="0" stopTime="0.00" timeLoss="32.49" rerouteNo="1" devices="vehroute_33_0 tripinfo_33_0 routing_33_0" vType="car" speedFactor="0.90" vaporized=""/>
    <tripinfo id="0_0" depart="60932.00" departLane="620_0" departPos="5.10" departSpeed="0.00" departDelay="0.00" arrival="60961.00" arrivalLane="582_0" arrivalPos="9.17" arrivalSpeed="6.67" duration="29.00" routeLength="199.86" waitingTime="0.00" waitingCount="0" stopTime="0.00" timeLoss="3.72" rerouteNo="1" devices="vehroute_0_0 tripinfo_0_0 routing_0_0" vType="car" speedFactor="1.14" vaporized=""/>
    <tripinfo id="40_0" depart="61028.00" departLane="562_0" departPos="5.10" departSpeed="0.00" departDelay="0.00" arrival="61284.00" arrivalLane="550_0" arrivalPos="1.89" arrivalSpeed="4.17" duration="256.00" routeLength="1056.56" waitingTime="0.00" waitingCount="0" stopTime="0.00" timeLoss="37.95" rerouteNo="1" devices="vehroute_40_0 tripinfo_40_0 routing_40_0" vType="car" speedFactor="1.02" vaporized=""/>
    <tripinfo id="15_0" depart="61251.00" departLane="283_0" departPos="5.10" departSpeed="0.00" departDelay="0.00" arrival="61379.00" arrivalLane="549_0" arrivalPos="1.89" arrivalSpeed="3.12" duration="128.00" routeLength="575.63" waitingTime="0.00" waitingCount="0" stopTime="0.00" timeLoss="19.68" rerouteNo="1" devices="vehroute_15_0 tripinfo_15_0 routing_15_0" vType="car" speedFactor="0.97" vaporized=""/>
    <tripinfo id="13_0" depart="61362.00" departLane="276_0" departPos="5.10" departSpeed="0.00" departDelay="0.00" arrival="61573.00" arrivalLane="192_0" arrivalPos="299.75" arrivalSpeed="4.43" duration="211.00" routeLength="806.77" waitingTime="0.00" waitingCount="0" stopTime="0.00" timeLoss="32.46" rerouteNo="1" devices="vehroute_13_0 tripinfo_13_0 routing_13_0" vType="car" speedFactor="1.08" vaporized=""/>
    <tripinfo id="38_0" depart="61824.00" departLane="511_0" departPos="5.10" departSpeed="0.00" departDelay="0.00" arrival="61910.00" arrivalLane="179_0" arrivalPos="4.97" arrivalSpeed="9.08" duration="86.00" routeLength="691.84" waitingTime="0.00" waitingCount="0" stopTime="0.00" timeLoss="11.12" rerouteNo="1" devices="vehroute_38_0 tripinfo_38_0 routing_38_0" vType="car" speedFactor="1.12" vaporized=""/>
    <tripinfo id="43_0" depart="62075.00" departLane="359_0" departPos="5.10" departSpeed="0.00" departDelay="0.00" arrival="62237.00" arrivalLane="24_0" arrivalPos="135.89" arrivalSpeed="5.78" duration="162.00" routeLength="1044.35" waitingTime="0.00" waitingCount="0" stopTime="0.00" timeLoss="17.89" rerouteNo="1" devices="vehroute_43_0 tripinfo_43_0 routing_43_0" vType="car" speedFactor="1.02" vaporized=""/>
    <tripinfo id="28_0" depart="62253.00" departLane="211_0" departPos="5.10" departSpeed="0.00" departDelay="0.00" arrival="62325.00" arrivalLane="272_0" arrivalPos="4.65" arrivalSpeed="7.21" duration="72.00" routeLength="762.27" waitingTime="0.00" waitingCount="0" stopTime="0.00" timeLoss="8.81" rerouteNo="1" devices="vehroute_28_0 tripinfo_28_0 routing_28_0" vType="car" speedFactor="0.99" vaporized=""/>
    <tripinfo id="36_0" depart="63032.00" departLane="373_0" departPos="5.10" departSpeed="0.00" departDelay="0.00" arrival="63217.00" arrivalLane="140_0" arrivalPos="9.13" arrivalSpeed="2.79" duration="185.00" routeLength="899.39" waitingTime="0.00" waitingCount="0" stopTime="0.00" timeLoss="26.45" rerouteNo="1" devices="vehroute_36_0 tripinfo_36_0 routing_36_0" vType="car" speedFactor="0.94" vaporized=""/>
    <tripinfo id="7_0" depart="63230.00" departLane="190_0" departPos="5.10" departSpeed="0.00" departDelay="0.00" arrival="63335.00" arrivalLane="222_0" arrivalPos="29.61" arrivalSpeed="12.17" duration="105.00" routeLength="961.66" waitingTime="0.00" waitingCount="0" stopTime="0.00" timeLoss="12.63" rerouteNo="1" devices="vehroute_7_0 tripinfo_7_0 routing_7_0" vType="car" speedFactor="0.88" vaporized=""/>
    <tripinfo id="14_0" depart="63444.00" departLane="485_0" departPos="5.10" departSpeed="0.00" departDelay="0.00" arrival="63496.00" arrivalLane="610_0" arrivalPos="14.54" arrivalSpeed="7.38" duration="52.00" routeLength="305.57" waitingTime="0.00" waitingCount="0" stopTime="0.00" timeLoss="7.27" rerouteNo="1" devices="vehroute_14_0 tripinfo_14_0 routing_14_0" vType="car" speedFactor="0.91" vaporized=""/>
    <tripinfo id="10_0" depart="63794.00" departLane="197_0" departPos="0.20" departSpeed="0.00" departDelay="0.00" arrival="64018.00" arrivalLane="151_0" arrivalPos="150.67" arrivalSpeed="3.73" duration="224.00" routeLength="1089.76" waitingTime="0.00" waitingCount="0" stopTime="0.00" timeLoss="31.60" rerouteNo="1" devices="vehroute_10_0 tripinfo_10_0 routing_10_0" vType="car" speedFactor="0.91" vaporized=""/>
    <tripinfo id="31_0" depart="63987.00" departLane="187_0" departPos="4.52" departSpeed="0.00" departDelay="0.00" arrival="64079.00" arrivalLane="353_0" arrivalPos="10.85" arrivalSpeed="8.65" duration="92.00" routeLength="717.65" waitingTime="0.00" waitingCount="0" stopTime="0.00" timeLoss="7.89" rerouteNo="1" devices="vehroute_31_0 tripinfo_31_0 routing_31_0" vType="car" speedFactor="1.04" vaporized=""/>
    <tripinfo id="42_0" depart="64090.00" departLane="218_0" departPos="5.10" departSpeed="0.00" departDelay="0.00" arrival="64253.00" arrivalLane="256_0" arrivalPos="0.20" arrivalSpeed="7.93" duration="163.00" routeLength="1917.05" waitingTime="0.00" waitingCount="0" stopTime="0.00" timeLoss="17.68" rerouteNo="1" devices="vehroute_42_0 tripinfo_42_0 routing_42_0" vType="car" speedFactor="1.02" vaporized=""/>