<?xml version="1.0" encoding="UTF-8"?>

<!-- generated on 2022-12-12 09:17:44 by Eclipse SUMO sumo Version 1.15.0
<configuration xmlns:xsi="http://www.w3.org/2001/XMLSchema-instance" xsi:noNamespaceSchemaLocation="http://sumo.dlr.de/xsd/sumoConfiguration.xsd">

    <input>
        <net-file value="MASA.net.xml"/>
        <route-files value="plans/plans100.rou.xml"/>
    </input>

    <output>
        <summary-output value="output/100Veh/summary.xml"/>
        <tripinfo-output value="output/100Veh/tripinfos.xml"/>
        <vehroute-output value="output/100Veh/vehroute.xml"/>
        <statistic-output value="output/100Veh/stats.xml"/>
    </output>

    <time>
        <begin value="0"/>
        <end value="86400"/>
        <step-length value="1"/>
    </time>

    <traci_server>
        <remote-port value="36499"/>
    </traci_server>

</configuration>
-->

<routes xmlns:xsi="http://www.w3.org/2001/XMLSchema-instance" xsi:noNamespaceSchemaLocation="http://sumo.dlr.de/xsd/routes_file.xsd">
    <vehicle id="39_0" type="car" depart="25328.00" arrival="25555.00">
        <route edges="439 437 435 433 385 291 292 293 294 295 408 409 410 338 340 342 344 346 67 65 63 61 59 57 407"/>
    </vehicle>

    <vehicle id="3_0" type="car" depart="25219.00" arrival="25771.00">
        <route edges="445 170 168 167 169 444 446 448 450 280 278 276 13 14 15 16 270 271 272 273 274 249 250 604 605 606 607 608 357 355 353 351 349 347 345 343 341 339 240 241 242 177 178 179 180 181 182 183 184 185 186 187 387 388 389 390 413 579 580 581 582 583 584 586 491 493 152 154 155 156 157 158 159 160 161 162 163"/>
    </vehicle>

    <vehicle id="10_0" type="car" depart="26193.00" arrival="26401.00">
        <route edges="151 174 589 587 585 627 629 100 98 414 569 570 571 287 288 289 290 291 292 293 294 295 408 409 410 338 340 342 344 346 67 65 63 480 478 476 194 195 196 197"/>
    </vehicle>

    <vehicle id="25_0" type="car" depart="28088.00" arrival="28202.00">
        <route edges="279 280 278 276 13 14 15 16 270 271 272 273 274 249 250 251 252 253 254 255 576 577 578 590 592 594 596 598 509 511 513 515 517 519 521 523 525 527 529 626 624 622 441 439 437 435"/>
    </vehicle>

    <vehicle id="42_0" type="car" depart="28206.00" arrival="28291.00">
        <route edges="256 257 258 259 260 261 262 263 264 265 266 267 268 269 270 271 272 273 274 249 250 251 252 253 254 255 576 577 578 590 592 594 596 598 509 511 513 515 517 519 521 523 525 527 529 600 602 204 206 208 210 212 214 216 218"/>
    </vehicle>

    <vehicle id="35_0" type="car" depart="28300.00" arrival="28504.00">
        <route edges="23 25 27 29 31 442 443 185 186 187 387 388 389 390 413 97 99 383 381 379 377 375 373 371 369 367 365 363 361 359 358 360 362 364 366 368 370"/>
    </vehicle>

    <vehicle id="15_0" type="car" depart="28712.00" arrival="28811.00">
        <route edges="549 111 113 115 117 119 121 346 348 350 352 354 356 609 610 611 612 255 256 257 258 259 260 261 262 263 264 265 484 485 275 277 279 281 283"/>
    </vehicle>

    <vehicle id="1_0" type="car" depart="29344.00" arrival="29561.00">
        <route edges="19 21 23 25 27 29 31 442 443 185 186 187 303 304 305 306 287 288 289 290 291 292 293 294 295 408 409 410 338 340 342 344 346 348 350 352 354 356 609 610 611 612 255 576 577 578"/>
    </vehicle>

    <vehicle id="47_0" type="car" depart="29618.00" arrival="29830.00">
        <route edges="21 23 25 27 29 31 442 443 185 186 187 303 304 305 306 287 288 289 290 291 292 293 294 295 408 409 410 338 340 342 344 346 348 350 352 354 356 609 610 611 612 255 576 577 578 590 592 594 596 598 509 511 513 515 517 519 521 523 525 527 529"/>
    </vehicle>

    <vehicle id="9_0" type="car" depart="30106.00" arrival="30181.00">
        <route edges="495 496 565 563 200"/>
    </vehicle>

    <vehicle id="11_0" type="car" depart="30078.00" arrival="30448.00">
        <route edges="375 373 371 369 367 365 363 361 359 358 360 362 364 366 368 370 372 374 376 378 380 382 100 98 414 569 570 571 287 288 289 290 291 292 293 294 295 555 556 557 177 178 179 481 482 483 32 30 28 26 24 501 503 505 176"/>
    </vehicle>

    <vehicle id="37_0" type="car" depart="30648.00" arrival="30809.00">
        <route edges="522 520 518 516 514 512 510 509 511 513 515 517 519 521 523 525 527 529 600 602 204 206 208 210 212 214 216 218 220 222 224 226 228 230 232 234 236 238 239 237 235 233 231 229 227 225 223 221 219 217 215 213"/>
    </vehicle>

    <vehicle id="17_0" type="car" depart="30812.00" arrival="30917.00">
        <route edges="404 405 403 401 312 76 78"/>
    </vehicle>

    <vehicle id="8_0" type="car" depart="30819.00" arrival="31116.00">
        <route edges="224 226 228 230 232 234 236 238 239 237 235 233 231 229 227 225 223 221 219 217 215 213 211 209 207 205 603 601 626 624 622 441 439 437 435 433 385 291 292 293 294 295 555 556 557 177 178 179 481 482 483 32 30 28 26 24 22 20 18 1 3 5 11 12"/>
    </vehicle>

    <vehicle id="23_0" type="car" depart="31772.00" arrival="31825.00">
        <route edges="340 342 344 346 348 350 352 354 356 609 610"/>
    </vehicle>

    <vehicle id="46_0" type="car" depart="31851.00" arrival="31898.00">
        <route edges="523 525 527 529 626 624 622 621"/>
    </vehicle>

    <vehicle id="18_0" type="car" depart="32043.00" arrival="32077.00">
        <route edges="242 177 178 179 180 181 182 183 184 185 186 187 387 388 389 390 413 97 99 630 628 627"/>
    </vehicle>

    <vehicle id="49_0" type="car" depart="32001.00" arrival="32088.00">
        <route edges="543 545 547 549 111 113 115 117 119 121 346 348 350 352 354 356 609 610 611 612 255 256 257 258 259 260 261 262 263 264 265 266 267 268 269 270 271 272 273 274 249 250"/>
    </vehicle>

    <vehicle id="7_0" type="car" depart="32049.00" arrival="32209.00">
        <route edges="222 224 226 228 230 232 234 236 238 239 237 235 233 231 229 227 225 223 221 219 217 215 213 211 209 207 205 603 601 530 528 526 524 522 520 518 516 514 512 510 599 597 595 593 591 472 473 474 260 188 189 190"/>
    </vehicle>

    <vehicle id="0_0" type="car" depart="32252.00" arrival="32287.00">
        <route edges="582 583 627 629 613 615 617 619 620"/>
    </vehicle>

    <vehicle id="5_0" type="car" depart="32797.00" arrival="32938.00">
        <route edges="514 512 510 509 511 513 515 517 519 521 523 525 527 529 600 602 204 206 208 210 212 214 216 218 220 222 224 226 228 230 232 234 236 238 239 237 235 233 231 229 227 225 223 221 219 217"/>
    </vehicle>

    <vehicle id="36_0" type="car" depart="33073.00" arrival="33223.00">
        <route edges="140 142 144 146 148 149 147 145 143 141 139 137 135 133 131 618 616 614 383 381 379 377 375 373"/>
    </vehicle>

    <vehicle id="32_0" type="car" depart="33239.00" arrival="33337.00">
        <route edges="264 265 266 267 268 269 270 271 272 273 274 249 250 604 605 606 607 608 357 355 353 351 349 347 345 343 341 339 240 241 242 177 178 179 180 181 182 183 184 185 186 187 387 388 389 390 569 570 571"/>
    </vehicle>

    <vehicle id="27_0" type="car" depart="33282.00" arrival="33413.00">
        <route edges="338 340 342 344 346 348 350 352 354 356 609 610 611 612 255 576 577 578 590 592 594 596 598 509 511 513 515 517 519 521 523"/>
    </vehicle>

    <vehicle id="20_0" type="car" depart="32970.00" arrival="33446.00">
        <route edges="325 327 329 431 428 429 430 27 29 31 442 443 185 186 187 303 304 305 306 287 288 289 290 291 292 293 294 295 408 409 410 338 340 342 344 346 348 350 352 354 356 609 610 611 612 255 256 257 258 259 260 261 262 263 264 265 484 485 275 277 279 451 449 447 80 82 84 86 88 89 87 85 83 81"/>
    </vehicle>

    <vehicle id="48_0" type="car" depart="33449.00" arrival="33699.00">
        <route edges="333 334 335 336 337 310 110 193 194 195 196 197 249 250 604 605 606 607 608 357 355 353 351 349 347 345 343 341 339 240 241 242 177 178 179 180 181 182 183 184 185 186 187 387 388 389 390 413 579 580 581 582 583 584 586 588 173 175"/>
    </vehicle>

    <vehicle id="16_0" type="car" depart="33538.00" arrival="33737.00">
        <route edges="206 208 210 212 214 216 218 220 222 224 226 228 230 232 234 236 238 239 237 235 233 231 229 227 225 223 221 219 217 215 213 211 209 207 205 603 601 530 528 526 524 522 520 518 516 514 512 510 599 597 595 593 591 472 473 474 260 261 262 263 264 265 266 267 268 269 270 271 272 273 274 249 250 604 605 606 607 608 357 355 353 351"/>
    </vehicle>

    <vehicle id="13_0" type="car" depart="33652.00" arrival="33785.00">
        <route edges="192 109 68 70 450 280 278 276"/>
    </vehicle>

    <vehicle id="21_0" type="car" depart="33556.00" arrival="33787.00">
        <route edges="161 162 163 164 165 166 153 494 492 587 585 627 629 613 615 617 619 621 623 625 600 602 204 206 208 210 212 214 216 218 220 222 224 226 228 230 232 234 236 238 239 237"/>
    </vehicle>

    <vehicle id="30_0" type="car" depart="33747.00" arrival="33793.00">
        <route edges="540 538 536 535 537 539 541 543 545 547 549 111 113 115 117 119 121 346 67 65"/>
    </vehicle>

    <vehicle id="29_0" type="car" depart="33713.00" arrival="33835.00">
        <route edges="138 140 142 144 146 148 149 147 145 143 141 139 137 135 133 131 618 497 498 499 500 579"/>
    </vehicle>

    <vehicle id="28_0" type="car" depart="33849.00" arrival="33994.00">
        <route edges="272 273 274 249 250 251 252 253 254 255 576 577 578 590 592 594 596 598 509 511 513 515 517 519 521 523 525 527 529 600 602 204 206 208 210 212 214 216 218 220 222 224 226 228 230 232 234 236 238 239 237 235 233 231 229 227 225 223 221 219 217 215 213 211"/>
    </vehicle>

    <vehicle id="4_0" type="car" depart="33856.00" arrival="34053.00">
        <route edges="358 360 362 364 366 368 370 372 374 376 378 380 382 613 615 617 619 621 623 625 600 602 204 206 208 210 212 214 216 218 220 222 224 226 228 230 232 234 236 238 239 237 235 233"/>
    </vehicle>

    <vehicle id="31_0" type="car" depart="34159.00" arrival="34216.00">
        <route edges="353 351 349 347 345 343 341 339 240 241 242 177 178 179 180 181 182 183 184 185 186 187"/>
    </vehicle>

    <vehicle id="45_0" type="car" depart="34140.00" arrival="34343.00">
        <route edges="468 470 471 469 467 465 463 461 459 457 455 453 589 587 585 627 629 100 98 414 569 570 571 287 288 289 290 291 292 293 294 295 555 556 557 177 178 179 180 181 182 183 184 185 186 187 387 388 323 325 327 329"/>
    </vehicle>

    <vehicle id="33_0" type="car" depart="34430.00" arrival="34628.00">
        <route edges="2 17 19 21 23 25 27 29 31 442 443 185 186 187 303 304 305 306 287 288 289 290 291 292 293 294 295 408 409 410 338 340 342 344 346 348 350 352 354 356 609 610 611 612 255 576 577 578 472 473"/>
    </vehicle>

    <vehicle id="14_0" type="car" depart="34843.00" arrival="34860.00">
        <route edges="610 611 612 255 256 257 258 259 260 261 262 263 264 265 484 485"/>
    </vehicle>

    <vehicle id="40_0" type="car" depart="34671.00" arrival="34952.00">
        <route edges="550 548 546 544 542 540 538 536 535 537 539 541 543 545 547 549 111 113 115 117 119 121 346 67 65 63 61 59 57 407 201 562"/>
    </vehicle>

    <vehicle id="43_0" type="car" depart="34976.00" arrival="35123.00">
        <route edges="24 23 25 27 29 31 442 443 185 186 187 387 388 389 390 413 97 99 383 381 379 377 375 373 371 369 367 365 363 361 359"/>
    </vehicle>

    <vehicle id="26_0" type="car" depart="35225.00" arrival="35295.00">
        <route edges="500 97 99 613 615 617 619 621 623 625 600 602 204 206 208"/>
    </vehicle>

    <vehicle id="38_0" type="car" depart="35475.00" arrival="35582.00">
        <route edges="179 180 181 182 183 184 185 186 187 303 304 305 306 287 288 289 290 291 292 293 294 295 408 409 410 338 340 342 344 346 348 350 352 354 356 609 610 611 612 255 576 577 578 590 592 594 596 598 509 511"/>
    </vehicle>

    <vehicle id="6_0" type="car" depart="35324.00" arrival="35616.00">
        <route edges="503 505 176 174 589 587 585 627 629 613 615 617 619 621 623 625 600 602 204 206 208 210 212 214 216 218 220 222 224 226 228 230 232 234 236 238 239 237 235 233 231 229 227 225 223 221 219 217 215 213"/>
    </vehicle>

    <vehicle id="19_0" type="car" depart="36066.00" arrival="36213.00">
        <route edges="442 443 185 186 187 303 304 305 306 287 288 384 432 434 436 438 440 621 623 625 600 602 204 206 208 210 212 214 216 218 220 222 224 226 228 230 232 234 236 238 239 237 235 233 231 229 227"/>
    </vehicle>

    <vehicle id="22_0" type="car" depart="36247.00" arrival="36304.00">
        <route edges="437 435 433 385 291 292 293 294 295 555 556 557 177 178 179 180 181 182 183 184 185 186 187 387 388 389 390 413 97 99"/>
    </vehicle>

    <vehicle id="34_0" type="car" depart="36168.00" arrival="36351.00">
        <route edges="465 463 461 459 457 455 453 173 175 506 504"/>
    </vehicle>

    <vehicle id="44_0" type="car" depart="36623.00" arrival="36745.00">
        <route edges="241 242 177 178 179 180 181 182 183 184 185 186 187 387 388 389 390 413 579 580 581 582 583 584 586 491 493 152 154 155 156 157 158 159 160 161 162 163 164"/>
    </vehicle>

    <vehicle id="41_0" type="car" depart="36911.00" arrival="36955.00">
        <route edges="66 347 345 343 341 339 240 241 242"/>
    </vehicle>

    <vehicle id="2_0" type="car" depart="36845.00" arrival="37131.00">
        <route edges="187 303 304 305 306 287 288 289 290 291 292 293 294 295 408 409 410 338 340 342 344 346 67 65 63 61 59 57 407 201 199"/>
    </vehicle>

    <vehicle id="24_0" type="car" depart="39073.00" arrival="39121.00">
        <route edges="433 385 291 292 293 294 295 408 409 410 338 340 342"/>
    </vehicle>

    <vehicle id="12_0" type="car" depart="39774.00" arrival="40011.00">
        <route edges="345 343 341 339 240 241 242 177 178 179 180 181 182 183 184 185 186 187 303 304 305 306 287 288 384 432 434 436 438 440 621 623 625 600 602 204 206 208 210 212 214 216 218 220 222 224 226 228 230 232 234 236 238 239 237 235 233 231 229 227 225 223 221 219 217 215 213 211 209"/>
    </vehicle>

    <vehicle id="35_0" type="car" depart="55210.00" arrival="55387.00">
        <route edges="370 372 374 376 378 380 382 100 98 414 569 570 571 287 288 289 290 291 292 293 294 295 555 556 557 177 178 179 481 482 483 32 30 28 26 24 23"/>
    </vehicle>

    <vehicle id="21_0" type="car" depart="58024.00" arrival="58194.00">
        <route edges="237 235 233 231 229 227 225 223 221 219 217 215 213 211 209 207 205 603 601 626 624 622 620 618 616 614 630 628 584 586 491 493 152 154 155 156 157 158 159 160 161"/>
    </vehicle>

    <vehicle id="27_0" type="car" depart="58375.00" arrival="58446.00">
        <route edges="523 525 527 529 626 624 622 441 439 437 435 433 385 291 292 293 294 295 408 409 410 338"/>
    </vehicle>

    <vehicle id="12_0" type="car" depart="58754.00" arrival="58853.00">
        <route edges="209 207 205 603 601 626 624 622 441 439 437 435 433 385 291 292 293 294 295 408 409 410 338 340 342 344 345"/>
    </vehicle>

    <vehicle id="20_0" type="car" depart="59027.00" arrival="59325.00">
        <route edges="81 446 448 450 280 278 276 13 14 15 16 270 271 272 273 274 249 250 604 605 606 607 608 357 355 353 351 349 347 345 343 341 339 240 241 242 177 178 179 180 181 182 183 184 185 186 187 387 388 323 325"/>
    </vehicle>

    <vehicle id="47_0" type="car" depart="59895.00" arrival="60132.00">
        <route edges="529 626 624 622 441 439 437 435 433 385 291 292 293 294 295 555 556 557 177 178 179 481 482 483 32 30 28 26 24 22 20 18 17 19 21"/>
    </vehicle>

    <vehicle id="33_0" type="car" depart="60626.00" arrival="60894.00">
        <route edges="473 474 260 261 262 263 264 265 266 267 268 269 270 271 272 273 274 249 250 604 605 606 607 608 357 355 353 351 349 347 345 343 341 339 240 241 242 177 178 179 481 482 483 32 30 28 26 24 22 20 18 1 3 4 2"/>
    </vehicle>

    <vehicle id="0_0" type="car" depart="60932.00" arrival="60961.00">
        <route edges="620 618 497 498 499 500 579 580 581 582"/>
    </vehicle>

    <vehicle id="40_0" type="car" depart="61028.00" arrival="61284.00">
        <route edges="562 564 191 192 193 194 195 196 197 249 250 604 605 606 607 608 357 355 353 351 349 347 122 120 118 116 114 112 550"/>
    </vehicle>

    <vehicle id="15_0" type="car" depart="61251.00" arrival="61379.00">
        <route edges="283 285 286 284 282 280 278 276 13 14 15 16 270 271 272 273 274 249 250 604 605 606 607 608 357 355 353 351 349 347 122 120 118 116 114 112 550 548 546 544 542 540 538 536 535 537 539 541 543 545 547 549"/>
    </vehicle>

    <vehicle id="13_0" type="car" depart="61362.00" arrival="61573.00">
        <route edges="276 13 14 15 16 270 307 308 309 310 311 400 192"/>
    </vehicle>

    <vehicle id="38_0" type="car" depart="61824.00" arrival="61910.00">
        <route edges="511 513 515 517 519 521 523 525 527 529 626 624 622 441 439 437 435 433 385 291 292 293 294 295 555 556 557 177 178 179"/>
    </vehicle>

    <vehicle id="43_0" type="car" depart="62075.00" arrival="62237.00">
        <route edges="359 358 360 362 364 366 368 370 372 374 376 378 380 382 100 98 414 569 570 571 287 288 289 290 291 292 293 294 295 555 556 557 177 178 179 481 482 483 32 30 28 26 24"/>
    </vehicle>

    <vehicle id="28_0" type="car" depart="62253.00" arrival="62325.00">
        <route edges="211 209 207 205 603 601 530 528 526 524 522 520 518 516 514 512 510 599 597 595 593 591 472 473 474 260 261 262 263 264 265 266 267 268 269 270 271 272"/>
    </vehicle>

    <vehicle id="36_0" type="car" depart="63032.00" arrival="63217.00">
        <route edges="373 371 369 367 365 363 361 359 358 360 362 364 366 368 370 372 374 376 378 380 382 613 615 617 130 132 134 136 138 140"/>
    </vehicle>

    <vehicle id="7_0" type="car" depart="63230.00" arrival="63335.00">
        <route edges="190 566 567 568 265 266 267 268 269 270 271 272 273 274 249 250 251 252 253 254 255 576 577 578 590 592 594 596 598 509 511 513 515 517 519 521 523 525 527 529 600 602 204 206 208 210 212 214 216 218 220 222"/>
    </vehicle>

    <vehicle id="14_0" type="car" depart="63444.00" arrival="63496.00">
        <route edges="485 13 14 15 16 270 271 272 273 274 249 250 604 605 606 607 608 357 355 353 351 349 348 350 352 354 356 609 610"/>
    </vehicle>

    <vehicle id="10_0" type="car" depart="63794.00" arrival="64018.00">
        <route edges="197 249 250 604 605 606 607 608 357 355 353 351 349 347 345 343 341 339 240 241 242 177 178 179 180 181 182 183 184 185 186 187 387 388 389 390 413 579 580 581 582 583 584 586 491 493 151"/>
    </vehicle>

    <vehicle id="31_0" type="car" depart="63987.00" arrival="64079.00">
        <route edges="187 303 304 305 306 287 288 289 290 291 292 293 294 295 408 409 410 338 340 342 344 346 348 350 352 354 356 609 610 611 612 255 256 257 258 259 260 261 262 263 264 265 266 267 268 269 270 271 272 273 274 249 250 604 605 606 607 608 357 355 353"/>
    </vehicle>

    <vehicle id="42_0" type="car" depart="64090.00" arrival="64253.00">
        <route edges="218 220 222 224 226 228 230 232 234 236 238 239 237 235 233 231 229 227 225 223 221 219 217 215 213 211 209 207 205 603 601 530 528 526 524 522 520 518 516 514 512 510 599 597 595 593 591 472 473 474 260 261 262 263 264 265 266 267 268 269 270 271 272 273 274 249 250 251 252 253 254 255 256"/>
    </vehicle>

    <vehicle id="24_0" type="car" depart="64440.00" arrival="64565.00">
        <route edges="342 344 345 343 341 339 240 241 242 177 178 179 180 181 182 183 184 185 186 187 303 304 305 306 287 288 384 432 434 436 438 440 441 439 437 435 433"/>
    </vehicle>

    <vehicle id="32_0" type="car" depart="64518.00" arrival="64595.00">
        <route edges="571 287 288 289 290 291 292 293 294 295 408 409 410 338 340 342 344 346 348 350 352 354 356 609 610 611 612 255 256 257 258 259 260 261 262 263 264"/>
    </vehicle>

    <vehicle id="26_0" type="car" depart="64670.00" arrival="64833.00">
        <route edges="208 210 212 214 216 218 220 222 224 226 228 230 232 234 236 238 239 237 235 233 231 229 227 225 223 221 219 217 215 213 211 209 207 205 603 601 626 624 622 620 618 497 498 499 500"/>
    </vehicle>

    <vehicle id="1_0" type="car" depart="64973.00" arrival="65192.00">
        <route edges="578 472 473 474 260 261 262 263 264 265 266 267 268 269 270 271 272 273 274 249 250 604 605 606 607 608 357 355 353 351 349 347 345 343 341 339 240 241 242 177 178 179 481 482 483 32 30 28 26 24 22 20 18 17 19"/>
    </vehicle>

    <vehicle id="41_0" type="car" depart="65117.00" arrival="65206.00">
        <route edges="242 177 178 179 180 181 182 183 184 185 186 187 303 304 305 306 287 288 289 290 291 292 293 294 295 408 409 410 338 340 342 344 346 67 65 63 62 64 66"/>
    </vehicle>

    <vehicle id="3_0" type="car" depart="65153.00" arrival="65598.00">
        <route edges="163 164 165 166 153 494 492 587 585 627 629 100 98 414 569 570 571 287 288 289 290 291 292 293 294 295 408 409 410 338 340 342 344 346 348 350 352 354 356 609 610 611 612 255 256 257 258 259 260 261 262 263 264 265 484 485 275 277 279 451 449 447 445"/>
    </vehicle>

    <vehicle id="44_0" type="car" depart="65675.00" arrival="65797.00">
        <route edges="164 165 166 153 494 492 587 585 627 629 100 98 414 569 570 571 287 288 289 290 291 292 293 294 295 408 409 410 240 241"/>
    </vehicle>

    <vehicle id="29_0" type="car" depart="65713.00" arrival="65801.00">
        <route edges="579 580 581 582 583 627 629 613 615 617 130 132 134 136 138"/>
    </vehicle>

    <vehicle id="18_0" type="car" depart="66044.00" arrival="66079.00">
        <route edges="627 629 100 98 414 569 570 571 287 288 289 290 291 292 293 294 295 408 409 410 240 241 242"/>
    </vehicle>

    <vehicle id="23_0" type="car" depart="66094.00" arrival="66171.00">
        <route edges="610 611 612 255 256 257 258 259 260 261 262 263 264 265 266 267 268 269 270 271 272 273 274 249 250 604 605 606 607 608 357 355 353 351 349 347 345 343 341 339 338 340"/>
    </vehicle>

    <vehicle id="2_0" type="car" depart="66069.00" arrival="66354.00">
        <route edges="199 198 200 406 56 58 60 62 64 66 347 345 343 341 339 240 241 242 177 178 179 180 181 182 183 184 185 186 187"/>
    </vehicle>

    <vehicle id="46_0" type="car" depart="66388.00" arrival="66472.00">
        <route edges="621 623 625 530 528 526 524 522 520 518 516 514 512 510 509 511 513 515 517 519 521 523"/>
    </vehicle>

    <vehicle id="45_0" type="car" depart="66611.00" arrival="66809.00">
        <route edges="329 431 428 429 430 27 29 31 442 443 185 186 187 387 388 389 390 413 579 580 581 582 583 584 586 588 452 454 456 458 460 462 464 466 468"/>
    </vehicle>

    <vehicle id="30_0" type="car" depart="66889.00" arrival="66959.00">
        <route edges="65 63 62 64 66 347 122 120 118 116 114 112 550 548 546 544 542 540"/>
    </vehicle>

    <vehicle id="16_0" type="car" depart="66925.00" arrival="67004.00">
        <route edges="351 349 348 350 352 354 356 609 610 611 612 255 576 577 578 590 592 594 596 598 509 511 513 515 517 519 521 523 525 527 529 600 602 204 206"/>
    </vehicle>

    <vehicle id="9_0" type="car" depart="66940.00" arrival="67076.00">
        <route edges="200 201 562 564 495"/>
    </vehicle>

    <vehicle id="19_0" type="car" depart="67032.00" arrival="67132.00">
        <route edges="227 225 223 221 219 217 215 213 211 209 207 205 603 601 626 624 622 441 439 437 435 433 385 291 292 293 294 295 555 556 557 177 178 179 481 482 483 442"/>
    </vehicle>

    <vehicle id="25_0" type="car" depart="67031.00" arrival="67146.00">
        <route edges="435 433 385 291 292 293 294 295 408 409 410 338 340 342 344 346 348 350 352 354 356 609 610 611 612 255 256 257 258 259 260 261 262 263 264 265 484 485 275 277 279"/>
    </vehicle>

    <vehicle id="39_0" type="car" depart="66949.00" arrival="67189.00">
        <route edges="407 202 106 104 193 194 195 196 197 249 250 251 252 253 254 255 576 577 578 590 592 594 596 598 509 511 513 515 517 519 521 523 525 527 529 626 624 622 441 439"/>
    </vehicle>

    <vehicle id="6_0" type="car" depart="67139.00" arrival="67375.00">
        <route edges="213 211 209 207 205 603 601 626 624 622 441 439 437 435 433 385 291 292 293 294 295 555 556 557 177 178 179 481 482 483 32 30 28 26 24 501 503"/>
    </vehicle>

    <vehicle id="37_0" type="car" depart="67369.00" arrival="67393.00">
        <route edges="213 211 209 207 205 603 601 530 528 526 524 522"/>
    </vehicle>

    <vehicle id="17_0" type="car" depart="67607.00" arrival="67739.00">
        <route edges="78 79 77 496 191 402 404"/>
    </vehicle>

    <vehicle id="22_0" type="car" depart="67963.00" arrival="68010.00">
        <route edges="99 613 615 617 619 441 439 437"/>
    </vehicle>

    <vehicle id="5_0" type="car" depart="68665.00" arrival="68713.00">
        <route edges="217 215 213 211 209 207 205 603 601 530 528 526 524 522 520 518 516 514"/>
    </vehicle>

    <vehicle id="48_0" type="car" depart="69226.00" arrival="69479.00">
        <route edges="175 506 504 502 23 25 27 29 31 442 443 185 186 187 303 304 305 306 287 288 289 290 291 292 293 294 295 408 409 410 338 340 342 344 346 348 350 352 354 356 609 610 611 612 255 256 257 258 259 260 261 262 263 264 265 484 485 275 277 331 332 333"/>
    </vehicle>

    <vehicle id="4_0" type="car" depart="69482.00" arrival="69633.00">
        <route edges="233 231 229 227 225 223 221 219 217 215 213 211 209 207 205 603 601 626 624 622 620 618 616 614 383 381 379 377 375 373 371 369 367 365 363 361 359 358"/>
    </vehicle>

    <vehicle id="49_0" type="car" depart="69949.00" arrival="70028.00">
        <route edges="250 604 605 606 607 608 357 355 353 351 349 347 122 120 118 116 114 112 550 548 546 544 542 540 538 536 535 537 539 541 543"/>
    </vehicle>

    <vehicle id="11_0" type="car" depart="69946.00" arrival="70032.00">
        <route edges="176 174 589 587 585 627 629 383 381 379 377 375"/>
    </vehicle>

    <vehicle id="34_0" type="car" depart="71367.00" arrival="71688.00">
        <route edges="504 502 23 25 27 29 31 442 443 185 186 187 387 388 389 390 413 579 580 581 582 583 584 586 588 452 454 456 458 460 462 464 466 468 470 471 469 467 465"/>
    </vehicle>

    <vehicle id="8_0" type="car" depart="76533.00" arrival="76756.00">
        <route edges="12 6 4 2 17 19 21 23 25 27 29 31 442 443 185 186 187 303 304 305 306 287 288 384 432 434 436 438 440 621 623 625 600 602 204 206 208 210 212 214 216 218 220 222 224"/>
    </vehicle>

</routes>
