<?xml version="1.0" encoding="UTF-8"?>

<!-- generated on 2023-03-09 09:56:42 by Eclipse SUMO sumo Version 1.16.0
<configuration xmlns:xsi="http://www.w3.org/2001/XMLSchema-instance" xsi:noNamespaceSchemaLocation="http://sumo.dlr.de/xsd/sumoConfiguration.xsd">

    <input>
        <net-file value="5k/MASA.net.xml"/>
        <route-files value="5k/plans.rou.xml"/>
        <additional-files value="5k/MASA.add.xml"/>
    </input>

    <output>
        <summary-output value="5k/../output/5k/summary.xml"/>
        <tripinfo-output value="5k/../output/5k/tripinfos.xml"/>
        <vehroute-output value="5k/../output/5k/vehroute.xml"/>
        <statistic-output value="5k/../output/5k/stats.xml"/>
    </output>

    <time>
        <begin value="0"/>
        <end value="86400"/>
        <step-length value="1"/>
    </time>

    <traci_server>
        <remote-port value="36465"/>
    </traci_server>

</configuration>
-->

<tripinfos xmlns:xsi="http://www.w3.org/2001/XMLSchema-instance" xsi:noNamespaceSchemaLocation="http://sumo.dlr.de/xsd/tripinfo_file.xsd">
    <tripinfo id="357_0" depart="19988.00" departLane="3765_0" departPos="5.10" departSpeed="0.00" departDelay="0.00" arrival="20194.00" arrivalLane="4489_0" arrivalPos="20.78" arrivalSpeed="2.55" duration="206.00" routeLength="777.38" waitingTime="0.00" waitingCount="0" stopTime="0.00" timeLoss="31.55" rerouteNo="1" devices="vehroute_357_0 tripinfo_357_0 routing_357_0" vType="car" speedFactor="1.06" vaporized=""/>
    <tripinfo id="1744_0" depart="20548.00" departLane="3616_0" departPos="0.20" departSpeed="0.00" departDelay="0.00" arrival="21308.00" arrivalLane="5039_0" arrivalPos="16.62" arrivalSpeed="1.53" duration="760.00" routeLength="5499.99" waitingTime="0.00" waitingCount="0" stopTime="0.00" timeLoss="101.90" rerouteNo="1" devices="vehroute_1744_0 tripinfo_1744_0 routing_1744_0" vType="car" speedFactor="0.94" vaporized=""/>
    <tripinfo id="1391_0" depart="21458.00" departLane="2289_0" departPos="5.10" departSpeed="0.00" departDelay="0.00" arrival="21624.00" arrivalLane="2638_0" arrivalPos="46.13" arrivalSpeed="3.30" duration="166.00" routeLength="1059.20" waitingTime="0.00" waitingCount="0" stopTime="0.00" timeLoss="21.53" rerouteNo="1" devices="vehroute_1391_0 tripinfo_1391_0 routing_1391_0" vType="car" speedFactor="1.01" vaporized=""/>
    <tripinfo id="1448_0" depart="21774.00" departLane="4725_0" departPos="0.10" departSpeed="0.00" departDelay="0.00" arrival="21981.00" arrivalLane="3420_0" arrivalPos="60.59" arrivalSpeed="15.01" duration="207.00" routeLength="1762.48" waitingTime="0.00" waitingCount="0" stopTime="0.00" timeLoss="25.33" rerouteNo="1" devices="vehroute_1448_0 tripinfo_1448_0 routing_1448_0" vType="car" speedFactor="1.08" vaporized=""/>
    <tripinfo id="1279_0" depart="21967.00" departLane="4327_0" departPos="0.20" departSpeed="0.00" departDelay="0.00" arrival="22215.00" arrivalLane="1274_0" arrivalPos="47.47" arrivalSpeed="6.74" duration="248.00" routeLength="2743.32" waitingTime="0.00" waitingCount="0" stopTime="0.00" timeLoss="24.99" rerouteNo="1" devices="vehroute_1279_0 tripinfo_1279_0 routing_1279_0" vType="car" speedFactor="1.03" vaporized=""/>
    <tripinfo id="1698_0" depart="22487.00" departLane="314_0" departPos="1.23" departSpeed="0.00" departDelay="0.00" arrival="22688.00" arrivalLane="803_0" arrivalPos="2.55" arrivalSpeed="1.26" duration="201.00" routeLength="1566.98" waitingTime="0.00" waitingCount="0" stopTime="0.00" timeLoss="28.65" rerouteNo="1" devices="vehroute_1698_0 tripinfo_1698_0 routing_1698_0" vType="car" speedFactor="0.89" vaporized=""/>
    <tripinfo id="2286_0" depart="22475.00" departLane="2932_0" departPos="5.10" departSpeed="0.00" departDelay="0.00" arrival="22698.00" arrivalLane="1626_0" arrivalPos="40.09" arrivalSpeed="4.34" duration="223.00" routeLength="1787.49" waitingTime="0.00" waitingCount="0" stopTime="0.00" timeLoss="29.54" rerouteNo="1" devices="vehroute_2286_0 tripinfo_2286_0 routing_2286_0" vType="car" speedFactor="1.05" vaporized=""/>
    <tripinfo id="2490_0" depart="22361.00" departLane="3793_0" departPos="5.10" departSpeed="0.00" departDelay="0.00" arrival="22780.00" arrivalLane="2722_0" arrivalPos="0.20" arrivalSpeed="2.81" duration="419.00" routeLength="3325.08" waitingTime="0.00" waitingCount="0" stopTime="0.00" timeLoss="46.54" rerouteNo="1" devices="vehroute_2490_0 tripinfo_2490_0 routing_2490_0" vType="car" speedFactor="0.83" vaporized=""/>
    <tripinfo id="2469_0" depart="23027.00" departLane="3131_0" departPos="5.10" departSpeed="0.00" departDelay="0.00" arrival="23206.00" arrivalLane="823_0" arrivalPos="15.21" arrivalSpeed="8.98" duration="179.00" routeLength="883.72" waitingTime="0.00" waitingCount="0" stopTime="0.00" timeLoss="28.95" rerouteNo="1" devices="vehroute_2469_0 tripinfo_2469_0 routing_2469_0" vType="car" speedFactor="0.86" vaporized=""/>
    <tripinfo id="1742_0" depart="23209.00" departLane="2066_0" departPos="0.46" departSpeed="0.00" departDelay="0.00" arrival="23339.00" arrivalLane="4930_0" arrivalPos="1.57" arrivalSpeed="1.77" duration="130.00" routeLength="1557.59" waitingTime="0.00" waitingCount="0" stopTime="0.00" timeLoss="22.00" rerouteNo="1" devices="vehroute_1742_0 tripinfo_1742_0 routing_1742_0" vType="car" speedFactor="1.09" vaporized=""/>
    <tripinfo id="1647_0" depart="22681.00" departLane="1020_0" departPos="5.10" departSpeed="0.00" departDelay="0.00" arrival="23431.00" arrivalLane="4692_0" arrivalPos="169.19" arrivalSpeed="2.95" duration="750.00" routeLength="2437.40" waitingTime="0.00" waitingCount="0" stopTime="0.00" timeLoss="126.10" rerouteNo="1" devices="vehroute_1647_0 tripinfo_1647_0 routing_1647_0" vType="car" speedFactor="0.94" vaporized=""/>
    <tripinfo id="675_0" depart="23345.00" departLane="4308_0" departPos="0.20" departSpeed="0.00" departDelay="0.00" arrival="23539.00" arrivalLane="663_0" arrivalPos="7.14" arrivalSpeed="9.18" duration="194.00" routeLength="2574.27" waitingTime="0.00" waitingCount="0" stopTime="0.00" timeLoss="25.41" rerouteNo="1" devices="vehroute_675_0 tripinfo_675_0 routing_675_0" vType="car" speedFactor="1.12" vaporized=""/>
    <tripinfo id="414_0" depart="23217.00" departLane="4323_0" departPos="5.10" departSpeed="0.00" departDelay="0.00" arrival="23700.00" arrivalLane="4643_0" arrivalPos="317.37" arrivalSpeed="4.01" duration="483.00" routeLength="2286.76" waitingTime="0.00" waitingCount="0" stopTime="0.00" timeLoss="68.66" rerouteNo="1" devices="vehroute_414_0 tripinfo_414_0 routing_414_0" vType="car" speedFactor="1.03" vaporized=""/>
    <tripinfo id="555_0" depart="23544.00" departLane="2316_0" departPos="5.10" departSpeed="0.00" departDelay="0.00" arrival="23726.00" arrivalLane="2296_0" arrivalPos="0.20" arrivalSpeed="3.87" duration="182.00" routeLength="1881.04" waitingTime="0.00" waitingCount="0" stopTime="0.00" timeLoss="19.71" rerouteNo="1" devices="vehroute_555_0 tripinfo_555_0 routing_555_0" vType="car" speedFactor="0.94" vaporized=""/>
    <tripinfo id="224_0" depart="23239.00" departLane="3017_0" departPos="0.59" departSpeed="0.00" departDelay="0.00" arrival="23793.00" arrivalLane="3076_0" arrivalPos="189.22" arrivalSpeed="3.26" duration="554.00" routeLength="4564.30" waitingTime="0.00" waitingCount="0" stopTime="0.00" timeLoss="63.67" rerouteNo="1" devices="vehroute_224_0 tripinfo_224_0 routing_224_0" vType="car" speedFactor="1.05" vaporized=""/>
    <tripinfo id="2307_0" depart="23474.00" departLane="2677_0" departPos="5.10" departSpeed="0.00" departDelay="0.00" arrival="23803.00" arrivalLane="4755_0" arrivalPos="55.30" arrivalSpeed="3.03" duration="329.00" routeLength="2022.30" waitingTime="0.00" waitingCount="0" stopTime="0.00" timeLoss="43.01" rerouteNo="1" devices="vehroute_2307_0 tripinfo_2307_0 routing_2307_0" vType="car" speedFactor="0.93" vaporized=""/>
    <tripinfo id="1431_0" depart="23482.00" departLane="2292_0" departPos="5.10" departSpeed="0.00" departDelay="0.00" arrival="23997.00" arrivalLane="4055_0" arrivalPos="81.27" arrivalSpeed="3.16" duration="515.00" routeLength="2702.39" waitingTime="0.00" waitingCount="0" stopTime="0.00" timeLoss="78.96" rerouteNo="1" devices="vehroute_1431_0 tripinfo_1431_0 routing_1431_0" vType="car" speedFactor="0.88" vaporized=""/>
    <tripinfo id="1735_0" depart="23773.00" departLane="3815_0" departPos="2.89" departSpeed="0.00" departDelay="0.00" arrival="24041.00" arrivalLane="2018_0" arrivalPos="0.20" arrivalSpeed="2.01" duration="268.00" routeLength="2819.47" waitingTime="0.00" waitingCount="0" stopTime="0.00" timeLoss="32.50" rerouteNo="1" devices="vehroute_1735_0 tripinfo_1735_0 routing_1735_0" vType="car" speedFactor="1.16" vaporized=""/>
    <tripinfo id="2006_0" depart="23808.00" departLane="3276_0" departPos="0.20" departSpeed="0.00" departDelay="0.00" arrival="24107.00" arrivalLane="1636_0" arrivalPos="23.31" arrivalSpeed="3.03" duration="299.00" routeLength="2475.49" waitingTime="0.00" waitingCount="0" stopTime="0.00" timeLoss="37.78" rerouteNo="1" devices="vehroute_2006_0 tripinfo_2006_0 routing_2006_0" vType="car" speedFactor="1.01" vaporized=""/>
    <tripinfo id="1896_0" depart="24067.00" departLane="1843_0" departPos="5.10" departSpeed="0.00" departDelay="0.00" arrival="24139.00" arrivalLane="5051_0" arrivalPos="0.71" arrivalSpeed="11.23" duration="72.00" routeLength="730.73" waitingTime="0.00" waitingCount="0" stopTime="0.00" timeLoss="10.97" rerouteNo="1" devices="vehroute_1896_0 tripinfo_1896_0 routing_1896_0" vType="car" speedFactor="0.89" vaporized=""/>
    <tripinfo id="2491_0" depart="23423.00" departLane="1502_0" departPos="5.10" departSpeed="0.00" departDelay="0.00" arrival="24165.00" arrivalLane="4673_0" arrivalPos="17.97" arrivalSpeed="3.63" duration="742.00" routeLength="3142.00" waitingTime="3.00" waitingCount="1" stopTime="0.00" timeLoss="118.37" rerouteNo="1" devices="vehroute_2491_0 tripinfo_2491_0 routing_2491_0" vType="car" speedFactor="0.99" vaporized=""/>
    <tripinfo id="1487_0" depart="23592.00" departLane="1110_0" departPos="5.10" departSpeed="0.00" departDelay="0.00" arrival="24270.00" arrivalLane="1724_0" arrivalPos="1.50" arrivalSpeed="1.88" duration="678.00" routeLength="4633.77" waitingTime="0.00" waitingCount="0" stopTime="0.00" timeLoss="82.57" rerouteNo="1" devices="vehroute_1487_0 tripinfo_1487_0 routing_1487_0" vType="car" speedFactor="0.94" vaporized=""/>
    <tripinfo id="2498_0" depart="24245.00" departLane="3327_0" departPos="5.10" departSpeed="0.00" departDelay="0.00" arrival="24317.00" arrivalLane="1867_0" arrivalPos="0.20" arrivalSpeed="4.54" duration="72.00" routeLength="747.57" waitingTime="0.00" waitingCount="0" stopTime="0.00" timeLoss="13.11" rerouteNo="1" devices="vehroute_2498_0 tripinfo_2498_0 routing_2498_0" vType="car" speedFactor="1.13" vaporized=""/>
    <tripinfo id="503_0" depart="24144.00" departLane="3081_0" departPos="5.10" departSpeed="0.00" departDelay="0.00" arrival="24351.00" arrivalLane="558_0" arrivalPos="19.32" arrivalSpeed="5.39" duration="207.00" routeLength="655.94" waitingTime="0.00" waitingCount="0" stopTime="0.00" timeLoss="35.27" rerouteNo="1" devices="vehroute_503_0 tripinfo_503_0 routing_503_0" vType="car" speedFactor="0.83" vaporized=""/>
    <tripinfo id="1532_0" depart="23804.00" departLane="2884_0" departPos="5.10" departSpeed="0.00" departDelay="0.00" arrival="24398.00" arrivalLane="2699_0" arrivalPos="69.94" arrivalSpeed="3.92" duration="594.00" routeLength="4704.02" waitingTime="0.00" waitingCount="0" stopTime="0.00" timeLoss="70.09" rerouteNo="1" devices="vehroute_1532_0 tripinfo_1532_0 routing_1532_0" vType="car" speedFactor="1.02" vaporized=""/>
    <tripinfo id="2194_0" depart="24212.00" departLane="3913_0" departPos="1.42" departSpeed="0.00" departDelay="0.00" arrival="24537.00" arrivalLane="2286_0" arrivalPos="140.00" arrivalSpeed="2.78" duration="325.00" routeLength="1276.32" waitingTime="0.00" waitingCount="0" stopTime="0.00" timeLoss="55.97" rerouteNo="1" devices="vehroute_2194_0 tripinfo_2194_0 routing_2194_0" vType="car" speedFactor="0.95" vaporized=""/>
    <tripinfo id="2224_0" depart="24199.00" departLane="3880_0" departPos="5.10" departSpeed="0.00" departDelay="0.00" arrival="24556.00" arrivalLane="603_0" arrivalPos="22.77" arrivalSpeed="11.97" duration="357.00" routeLength="2847.91" waitingTime="0.00" waitingCount="0" stopTime="0.00" timeLoss="46.04" rerouteNo="1" devices="vehroute_2224_0 tripinfo_2224_0 routing_2224_0" vType="car" speedFactor="0.92" vaporized=""/>
    <tripinfo id="1638_0" depart="24472.00" departLane="4736_0" departPos="5.10" departSpeed="0.00" departDelay="0.00" arrival="24568.00" arrivalLane="5035_0" arrivalPos="4.98" arrivalSpeed="5.99" duration="96.00" routeLength="548.45" waitingTime="0.00" waitingCount="0" stopTime="0.00" timeLoss="15.43" rerouteNo="1" devices="vehroute_1638_0 tripinfo_1638_0 routing_1638_0" vType="car" speedFactor="0.93" vaporized=""/>
    <tripinfo id="1661_0" depart="24633.00" departLane="2125_0" departPos="5.10" departSpeed="0.00" departDelay="0.00" arrival="24790.00" arrivalLane="1869_0" arrivalPos="6.06" arrivalSpeed="3.84" duration="157.00" routeLength="1625.10" waitingTime="0.00" waitingCount="0" stopTime="0.00" timeLoss="32.99" rerouteNo="1" devices="vehroute_1661_0 tripinfo_1661_0 routing_1661_0" vType="car" speedFactor="1.01" vaporized=""/>
    <tripinfo id="1031_0" depart="24666.00" departLane="3274_0" departPos="2.70" departSpeed="0.00" departDelay="0.00" arrival="24830.00" arrivalLane="5074_0" arrivalPos="2.38" arrivalSpeed="4.01" duration="164.00" routeLength="1453.08" waitingTime="0.00" waitingCount="0" stopTime="0.00" timeLoss="21.92" rerouteNo="1" devices="vehroute_1031_0 tripinfo_1031_0 routing_1031_0" vType="car" speedFactor="1.17" vaporized=""/>
    <tripinfo id="1344_0" depart="24159.00" departLane="3018_0" departPos="0.59" departSpeed="0.00" departDelay="0.00" arrival="24914.00" arrivalLane="4035_0" arrivalPos="155.43" arrivalSpeed="2.49" duration="755.00" routeLength="4788.25" waitingTime="0.00" waitingCount="0" stopTime="0.00" timeLoss="102.54" rerouteNo="1" devices="vehroute_1344_0 tripinfo_1344_0 routing_1344_0" vType="car" speedFactor="0.87" vaporized=""/>
    <tripinfo id="1654_0" depart="24562.00" departLane="4035_0" departPos="5.10" departSpeed="0.00" departDelay="0.00" arrival="24933.00" arrivalLane="3762_0" arrivalPos="1.63" arrivalSpeed="4.61" duration="371.00" routeLength="2733.22" waitingTime="0.00" waitingCount="0" stopTime="0.00" timeLoss="51.21" rerouteNo="1" devices="vehroute_1654_0 tripinfo_1654_0 routing_1654_0" vType="car" speedFactor="1.15" vaporized=""/>
    <tripinfo id="1040_0" depart="24518.00" departLane="4047_0" departPos="5.10" departSpeed="0.00" departDelay="0.00" arrival="24975.00" arrivalLane="1511_0" arrivalPos="26.96" arrivalSpeed="3.12" duration="457.00" routeLength="3656.11" waitingTime="4.00" waitingCount="1" stopTime="0.00" timeLoss="59.36" rerouteNo="1" devices="vehroute_1040_0 tripinfo_1040_0 routing_1040_0" vType="car" speedFactor="1.18" vaporized=""/>
    <tripinfo id="558_0" depart="24969.00" departLane="189_0" departPos="5.10" departSpeed="0.00" departDelay="0.00" arrival="25181.00" arrivalLane="1665_0" arrivalPos="4.97" arrivalSpeed="2.92" duration="212.00" routeLength="2416.75" waitingTime="0.00" waitingCount="0" stopTime="0.00" timeLoss="22.78" rerouteNo="1" devices="vehroute_558_0 tripinfo_558_0 routing_558_0" vType="car" speedFactor="0.97" vaporized=""/>
    <tripinfo id="2275_0" depart="25089.00" departLane="1797_0" departPos="5.10" departSpeed="0.00" departDelay="0.00" arrival="25262.00" arrivalLane="3648_0" arrivalPos="2.65" arrivalSpeed="4.10" duration="173.00" routeLength="914.57" waitingTime="0.00" waitingCount="0" stopTime="0.00" timeLoss="22.65" rerouteNo="1" devices="vehroute_2275_0 tripinfo_2275_0 routing_2275_0" vType="car" speedFactor="1.03" vaporized=""/>
    <tripinfo id="1699_0" depart="25069.00" departLane="1245_0" departPos="5.10" departSpeed="0.00" departDelay="0.00" arrival="25308.00" arrivalLane="3684_0" arrivalPos="11.97" arrivalSpeed="15.08" duration="239.00" routeLength="2329.47" waitingTime="0.00" waitingCount="0" stopTime="0.00" timeLoss="27.92" rerouteNo="1" devices="vehroute_1699_0 tripinfo_1699_0 routing_1699_0" vType="car" speedFactor="1.10" vaporized=""/>
    <tripinfo id="1101_0" depart="24892.00" departLane="3871_0" departPos="3.36" departSpeed="0.00" departDelay="0.00" arrival="25418.00" arrivalLane="2019_0" arrivalPos="12.17" arrivalSpeed="2.20" duration="526.00" routeLength="4632.59" waitingTime="0.00" waitingCount="0" stopTime="0.00" timeLoss="65.13" rerouteNo="1" devices="vehroute_1101_0 tripinfo_1101_0 routing_1101_0" vType="car" speedFactor="0.99" vaporized=""/>
    <tripinfo id="1008_0" depart="25137.00" departLane="2605_0" departPos="5.10" departSpeed="0.00" departDelay="0.00" arrival="25440.00" arrivalLane="5042_0" arrivalPos="2.36" arrivalSpeed="7.35" duration="303.00" routeLength="2588.63" waitingTime="0.00" waitingCount="0" stopTime="0.00" timeLoss="37.65" rerouteNo="1" devices="vehroute_1008_0 tripinfo_1008_0 routing_1008_0" vType="car" speedFactor="1.04" vaporized=""/>
    <tripinfo id="654_0" depart="25064.00" departLane="2742_0" departPos="5.10" departSpeed="0.00" departDelay="0.00" arrival="25449.00" arrivalLane="4366_0" arrivalPos="17.92" arrivalSpeed="4.01" duration="385.00" routeLength="2950.92" waitingTime="0.00" waitingCount="0" stopTime="0.00" timeLoss="47.47" rerouteNo="1" devices="vehroute_654_0 tripinfo_654_0 routing_654_0" vType="car" speedFactor="1.18" vaporized=""/>
    <tripinfo id="1490_0" depart="24967.00" departLane="1652_0" departPos="0.20" departSpeed="0.00" departDelay="0.00" arrival="25454.00" arrivalLane="2695_0" arrivalPos="35.80" arrivalSpeed="4.08" duration="487.00" routeLength="3743.40" waitingTime="0.00" waitingCount="0" stopTime="0.00" timeLoss="57.68" rerouteNo="1" devices="vehroute_1490_0 tripinfo_1490_0 routing_1490_0" vType="car" speedFactor="1.02" vaporized=""/>
    <tripinfo id="2488_0" depart="23946.00" departLane="3076_0" departPos="5.10" departSpeed="0.00" departDelay="0.00" arrival="25480.00" arrivalLane="4650_0" arrivalPos="3.61" arrivalSpeed="3.68" duration="1534.00" routeLength="7449.51" waitingTime="0.00" waitingCount="0" stopTime="0.00" timeLoss="222.55" rerouteNo="1" devices="vehroute_2488_0 tripinfo_2488_0 routing_2488_0" vType="car" speedFactor="0.97" vaporized=""/>
    <tripinfo id="794_0" depart="25336.00" departLane="4185_0" departPos="2.41" departSpeed="0.00" departDelay="0.00" arrival="25501.00" arrivalLane="4165_0" arrivalPos="19.31" arrivalSpeed="4.86" duration="165.00" routeLength="743.54" waitingTime="0.00" waitingCount="0" stopTime="0.00" timeLoss="24.28" rerouteNo="1" devices="vehroute_794_0 tripinfo_794_0 routing_794_0" vType="car" speedFactor="0.88" vaporized=""/>
    <tripinfo id="1585_0" depart="25171.00" departLane="3802_0" departPos="5.10" departSpeed="0.00" departDelay="0.00" arrival="25513.00" arrivalLane="695_0" arrivalPos="1.34" arrivalSpeed="4.26" duration="342.00" routeLength="2441.90" waitingTime="0.00" waitingCount="0" stopTime="0.00" timeLoss="47.21" rerouteNo="1" devices="vehroute_1585_0 tripinfo_1585_0 routing_1585_0" vType="car" speedFactor="1.09" vaporized=""/>
    <tripinfo id="2021_0" depart="25083.00" departLane="103_0" departPos="4.63" departSpeed="0.00" departDelay="0.00" arrival="25554.00" arrivalLane="4820_0" arrivalPos="0.20" arrivalSpeed="5.58" duration="471.00" routeLength="1939.46" waitingTime="0.00" waitingCount="0" stopTime="0.00" timeLoss="70.08" rerouteNo="1" devices="vehroute_2021_0 tripinfo_2021_0 routing_2021_0" vType="car" speedFactor="0.90" vaporized=""/>
    <tripinfo id="2320_0" depart="25089.00" departLane="391_0" departPos="5.10" departSpeed="0.00" departDelay="0.00" arrival="25559.00" arrivalLane="3073_0" arrivalPos="135.02" arrivalSpeed="2.97" duration="470.00" routeLength="4467.92" waitingTime="0.00" waitingCount="0" stopTime="0.00" timeLoss="45.93" rerouteNo="1" devices="vehroute_2320_0 tripinfo_2320_0 routing_2320_0" vType="car" speedFactor="0.96" vaporized=""/>
    <tripinfo id="1767_0" depart="25112.00" departLane="3154_0" departPos="5.10" departSpeed="0.00" departDelay="0.00" arrival="25569.00" arrivalLane="1921_0" arrivalPos="7.28" arrivalSpeed="3.46" duration="457.00" routeLength="4345.56" waitingTime="0.00" waitingCount="0" stopTime="0.00" timeLoss="44.16" rerouteNo="1" devices="vehroute_1767_0 tripinfo_1767_0 routing_1767_0" vType="car" speedFactor="1.09" vaporized=""/>
    <tripinfo id="1342_0" depart="25531.00" departLane="2401_0" departPos="5.10" departSpeed="0.00" departDelay="0.00" arrival="25668.00" arrivalLane="4409_0" arrivalPos="7.44" arrivalSpeed="4.41" duration="137.00" routeLength="681.35" waitingTime="0.00" waitingCount="0" stopTime="0.00" timeLoss="20.38" rerouteNo="1" devices="vehroute_1342_0 tripinfo_1342_0 routing_1342_0" vType="car" speedFactor="1.17" vaporized=""/>
    <tripinfo id="2389_0" depart="25606.00" departLane="1478_0" departPos="5.10" departSpeed="0.00" departDelay="0.00" arrival="25745.00" arrivalLane="4717_0" arrivalPos="78.77" arrivalSpeed="13.48" duration="139.00" routeLength="1387.34" waitingTime="0.00" waitingCount="0" stopTime="0.00" timeLoss="16.54" rerouteNo="1" devices="vehroute_2389_0 tripinfo_2389_0 routing_2389_0" vType="car" speedFactor="1.00" vaporized=""/>
    <tripinfo id="207_0" depart="25656.00" departLane="4178_0" departPos="0.20" departSpeed="0.00" departDelay="0.00" arrival="25810.00" arrivalLane="3126_0" arrivalPos="44.39" arrivalSpeed="3.81" duration="154.00" routeLength="682.11" waitingTime="0.00" waitingCount="0" stopTime="0.00" timeLoss="23.24" rerouteNo="1" devices="vehroute_207_0 tripinfo_207_0 routing_207_0" vType="car" speedFactor="1.02" vaporized=""/>
    <tripinfo id="2492_0" depart="25653.00" departLane="324_0" departPos="5.10" departSpeed="0.00" departDelay="0.00" arrival="25830.00" arrivalLane="4083_0" arrivalPos="2.34" arrivalSpeed="4.01" duration="177.00" routeLength="1848.99" waitingTime="0.00" waitingCount="0" stopTime="0.00" timeLoss="20.78" rerouteNo="1" devices="vehroute_2492_0 tripinfo_2492_0 routing_2492_0" vType="car" speedFactor="1.14" vaporized=""/>
    <tripinfo id="1657_0" depart="25721.00" departLane="2691_0" departPos="0.87" departSpeed="0.00" departDelay="0.00" arrival="25840.00" arrivalLane="3843_0" arrivalPos="2.58" arrivalSpeed="2.61" duration="119.00" routeLength="884.85" waitingTime="0.00" waitingCount="0" stopTime="0.00" timeLoss="16.18" rerouteNo="1" devices="vehroute_1657_0 tripinfo_1657_0 routing_1657_0" vType="car" speedFactor="1.12" vaporized=""/>
    <tripinfo id="1319_0" depart="25494.00" departLane="5053_0" departPos="2.80" departSpeed="0.00" departDelay="0.00" arrival="25878.00" arrivalLane="3103_0" arrivalPos="0.98" arrivalSpeed="2.33" duration="384.00" routeLength="2267.99" waitingTime="0.00" waitingCount="0" stopTime="0.00" timeLoss="50.34" rerouteNo="1" devices="vehroute_1319_0 tripinfo_1319_0 routing_1319_0" vType="car" speedFactor="0.85" vaporized=""/>
    <tripinfo id="443_0" depart="25473.00" departLane="2058_0" departPos="5.10" departSpeed="0.00" departDelay="0.00" arrival="25911.00" arrivalLane="1622_0" arrivalPos="30.00" arrivalSpeed="3.23" duration="438.00" routeLength="2587.34" waitingTime="0.00" waitingCount="0" stopTime="0.00" timeLoss="66.63" rerouteNo="1" devices="vehroute_443_0 tripinfo_443_0 routing_443_0" vType="car" speedFactor="0.85" vaporized=""/>
    <tripinfo id="519_0" depart="25766.00" departLane="1070_0" departPos="2.23" departSpeed="0.00" departDelay="0.00" arrival="25923.00" arrivalLane="1129_0" arrivalPos="1.10" arrivalSpeed="6.31" duration="157.00" routeLength="1262.18" waitingTime="0.00" waitingCount="0" stopTime="0.00" timeLoss="20.20" rerouteNo="1" devices="vehroute_519_0 tripinfo_519_0 routing_519_0" vType="car" speedFactor="0.88" vaporized=""/>
    <tripinfo id="1748_0" depart="25152.00" departLane="5019_0" departPos="5.10" departSpeed="0.00" departDelay="0.00" arrival="25948.00" arrivalLane="3933_0" arrivalPos="31.07" arrivalSpeed="5.99" duration="796.00" routeLength="5521.65" waitingTime="0.00" waitingCount="0" stopTime="0.00" timeLoss="106.65" rerouteNo="1" devices="vehroute_1748_0 tripinfo_1748_0 routing_1748_0" vType="car" speedFactor="1.04" vaporized=""/>
    <tripinfo id="232_0" depart="25589.00" departLane="5163_0" departPos="5.10" departSpeed="0.00" departDelay="0.00" arrival="25979.00" arrivalLane="607_0" arrivalPos="9.26" arrivalSpeed="13.46" duration="390.00" routeLength="3016.21" waitingTime="0.00" waitingCount="0" stopTime="0.00" timeLoss="49.70" rerouteNo="1" devices="vehroute_232_0 tripinfo_232_0 routing_232_0" vType="car" speedFactor="1.00" vaporized=""/>
    <tripinfo id="1753_0" depart="25766.00" departLane="2661_0" departPos="5.10" departSpeed="0.00" departDelay="0.00" arrival="25994.00" arrivalLane="2166_0" arrivalPos="9.30" arrivalSpeed="11.85" duration="228.00" routeLength="1482.92" waitingTime="0.00" waitingCount="0" stopTime="0.00" timeLoss="32.11" rerouteNo="1" devices="vehroute_1753_0 tripinfo_1753_0 routing_1753_0" vType="car" speedFactor="0.94" vaporized=""/>
    <tripinfo id="347_0" depart="25742.00" departLane="3931_0" departPos="5.10" departSpeed="0.00" departDelay="0.00" arrival="25997.00" arrivalLane="3790_0" arrivalPos="11.89" arrivalSpeed="8.15" duration="255.00" routeLength="2705.40" waitingTime="0.00" waitingCount="0" stopTime="0.00" timeLoss="33.46" rerouteNo="1" devices="vehroute_347_0 tripinfo_347_0 routing_347_0" vType="car" speedFactor="0.99" vaporized=""/>
    <tripinfo id="2229_0" depart="25696.00" departLane="3723_0" departPos="1.34" departSpeed="0.00" departDelay="0.00" arrival="26014.00" arrivalLane="1555_0" arrivalPos="5.13" arrivalSpeed="2.93" duration="318.00" routeLength="2997.91" waitingTime="0.00" waitingCount="0" stopTime="0.00" timeLoss="39.67" rerouteNo="1" devices="vehroute_2229_0 tripinfo_2229_0 routing_2229_0" vType="car" speedFactor="1.08" vaporized=""/>
    <tripinfo id="1032_0" depart="25669.00" departLane="1197_0" departPos="5.10" departSpeed="0.00" departDelay="0.00" arrival="26021.00" arrivalLane="4733_0" arrivalPos="41.54" arrivalSpeed="13.29" duration="352.00" routeLength="2735.28" waitingTime="0.00" waitingCount="0" stopTime="0.00" timeLoss="36.11" rerouteNo="1" devices="vehroute_1032_0 tripinfo_1032_0 routing_1032_0" vType="car" speedFactor="0.97" vaporized=""/>
    <tripinfo id="863_0" depart="25857.00" departLane="1277_0" departPos="5.10" departSpeed="0.00" departDelay="0.00" arrival="26043.00" arrivalLane="1770_0" arrivalPos="1.49" arrivalSpeed="2.52" duration="186.00" routeLength="1609.23" waitingTime="0.00" waitingCount="0" stopTime="0.00" timeLoss="22.20" rerouteNo="1" devices="vehroute_863_0 tripinfo_863_0 routing_863_0" vType="car" speedFactor="0.97" vaporized=""/>
    <tripinfo id="553_0" depart="25271.00" departLane="4672_0" departPos="5.10" departSpeed="0.00" departDelay="0.00" arrival="26094.00" arrivalLane="2525_0" arrivalPos="1.87" arrivalSpeed="1.70" duration="823.00" routeLength="3351.79" waitingTime="0.00" waitingCount="0" stopTime="0.00" timeLoss="125.95" rerouteNo="1" devices="vehroute_553_0 tripinfo_553_0 routing_553_0" vType="car" speedFactor="1.00" vaporized=""/>
    <tripinfo id="2303_0" depart="25851.00" departLane="723_0" departPos="0.20" departSpeed="0.00" departDelay="0.00" arrival="26094.00" arrivalLane="571_0" arrivalPos="0.20" arrivalSpeed="2.58" duration="243.00" routeLength="2792.28" waitingTime="0.00" waitingCount="0" stopTime="0.00" timeLoss="33.85" rerouteNo="1" devices="vehroute_2303_0 tripinfo_2303_0 routing_2303_0" vType="car" speedFactor="1.02" vaporized=""/>
    <tripinfo id="1497_0" depart="25315.00" departLane="1383_0" departPos="5.10" departSpeed="0.00" departDelay="0.00" arrival="26098.00" arrivalLane="3025_0" arrivalPos="0.65" arrivalSpeed="3.42" duration="783.00" routeLength="2491.31" waitingTime="0.00" waitingCount="0" stopTime="0.00" timeLoss="139.49" rerouteNo="1" devices="vehroute_1497_0 tripinfo_1497_0 routing_1497_0" vType="car" speedFactor="0.90" vaporized=""/>
    <tripinfo id="1888_0" depart="25651.00" departLane="1263_0" departPos="4.56" departSpeed="0.00" departDelay="0.00" arrival="26125.00" arrivalLane="2739_0" arrivalPos="14.04" arrivalSpeed="3.57" duration="474.00" routeLength="3511.58" waitingTime="0.00" waitingCount="0" stopTime="0.00" timeLoss="54.06" rerouteNo="1" devices="vehroute_1888_0 tripinfo_1888_0 routing_1888_0" vType="car" speedFactor="0.90" vaporized=""/>
    <tripinfo id="2326_0" depart="25875.00" departLane="4581_0" departPos="5.10" departSpeed="0.00" departDelay="0.00" arrival="26128.00" arrivalLane="1328_0" arrivalPos="10.69" arrivalSpeed="3.44" duration="253.00" routeLength="891.89" waitingTime="0.00" waitingCount="0" stopTime="0.00" timeLoss="44.40" rerouteNo="1" devices="vehroute_2326_0 tripinfo_2326_0 routing_2326_0" vType="car" speedFactor="0.94" vaporized=""/>
    <tripinfo id="2246_0" depart="26045.00" departLane="3509_0" departPos="4.25" departSpeed="0.00" departDelay="0.00" arrival="26132.00" arrivalLane="5048_0" arrivalPos="3.45" arrivalSpeed="12.95" duration="87.00" routeLength="968.13" waitingTime="0.00" waitingCount="0" stopTime="0.00" timeLoss="11.94" rerouteNo="1" devices="vehroute_2246_0 tripinfo_2246_0 routing_2246_0" vType="car" speedFactor="0.97" vaporized=""/>
    <tripinfo id="1769_0" depart="25930.00" departLane="3802_0" departPos="5.10" departSpeed="0.00" departDelay="0.00" arrival="26145.00" arrivalLane="789_0" arrivalPos="0.20" arrivalSpeed="3.01" duration="215.00" routeLength="2212.04" waitingTime="1.00" waitingCount="1" stopTime="0.00" timeLoss="25.57" rerouteNo="1" devices="vehroute_1769_0 tripinfo_1769_0 routing_1769_0" vType="car" speedFactor="0.98" vaporized=""/>