<?xml version="1.0" encoding="UTF-8"?>

<!-- generated on 2023-03-09 09:56:42 by Eclipse SUMO sumo Version 1.16.0
<configuration xmlns:xsi="http://www.w3.org/2001/XMLSchema-instance" xsi:noNamespaceSchemaLocation="http://sumo.dlr.de/xsd/sumoConfiguration.xsd">

    <input>
        <net-file value="5k/MASA.net.xml"/>
        <route-files value="5k/plans.rou.xml"/>
        <additional-files value="5k/MASA.add.xml"/>
    </input>

    <output>
        <summary-output value="5k/../output/5k/summary.xml"/>
        <tripinfo-output value="5k/../output/5k/tripinfos.xml"/>
        <vehroute-output value="5k/../output/5k/vehroute.xml"/>
        <statistic-output value="5k/../output/5k/stats.xml"/>
    </output>

    <time>
        <begin value="0"/>
        <end value="86400"/>
        <step-length value="1"/>
    </time>

    <traci_server>
        <remote-port value="36465"/>
    </traci_server>

</configuration>
-->

<routes xmlns:xsi="http://www.w3.org/2001/XMLSchema-instance" xsi:noNamespaceSchemaLocation="http://sumo.dlr.de/xsd/routes_file.xsd">
    <vehicle id="357_0" type="car" depart="19988.00" arrival="20194.00">
        <route edges="3765 3234 3236 3238 3240 3242 3244 3246 3248 1389 1391 19 3847 3845 3843 4489"/>
    </vehicle>

    <vehicle id="1744_0" type="car" depart="20548.00" arrival="21308.00">
        <route edges="3616 1936 1937 5129 351 352 353 354 355 356 399 400 401 402 405 406 407 408 287 288 289 290 291 292 280 281 282 1926 1927 1928 1804 1805 1806 3718 3719 3720 3721 3722 3723 345 346 347 348 349 350 2244 2245 2246 2247 2248 2249 4306 4307 4308 5051 5052 5053 5048 5049 5050 4301 4302 4303 2922 2923 2924 2925 394 395 396 397 398 221 222 1882 1883 1884 2155 2174 3652 3688 3686 3684 503 501 499 497 495 493 3638 3636 3629 3630 3631 1801 2242 2243 1149 1151 1153 1155 920 921 2084 3326 3324 3322 3320 3318 3316 3314 3312 1848 1846 1844 1842 1840 1838 273 271 269 267 265 263 261 259 257 255 253 251 249 275 2580 2578 461 459 286 284 481 479 477 475 473 471 469 467 1388 465 463 279 277 307 297 302 3895 3893 3891 3889 3887 3885 3881 816 814 3251 197 155 193 449 191 189 830 828 826 824 822 1446 1444 718 716 714 712 710 708 706 704 702 935 933 931 929 1460 1829 3361 3362 3363 3364 3365 3366 3367 3368 3369 3370 3371 3966 2877 2879 2881 2883 2885 2790 2791 2792 2793 2811 2812 2813 2814 2794 2795 2796 2849 303 304 305 2591 2592 2593 2594 2595 2596 2597 308 309 310 357 1352 1350 1348 1346 1344 1342 1340 1338 1336 1334 5041 5039"/>
    </vehicle>

    <vehicle id="1391_0" type="car" depart="21458.00" arrival="21624.00">
        <route edges="2289 2288 2290 3240 3242 3244 3246 3248 462 464 1387 466 468 470 472 474 476 478 480 283 285 458 460 2577 2579 274 248 250 252 254 2632 2634 2636 2638"/>
    </vehicle>

    <vehicle id="1448_0" type="car" depart="21774.00" arrival="21981.00">
        <route edges="4725 4723 4721 4719 1458 1456 1454 1452 1450 4705 4706 4707 1148 2089 2090 2091 2092 1801 2114 2115 2116 2117 1132 1133 1134 1135 1136 1137 1138 541 542 543 544 545 4111 4112 4113 4114 4115 4116 4117 4118 4119 4120 1129 1130 1131 1090 1091 1092 4196 4197 4198 3292 3290 3288 3286 4820 4822 4824 4826 4828 4830 4832 4834 4836 4838 4788 4790 4792 4863 4861 3277 3278 3279 3280 3281 3282 3283 3284 3266 562 560 558 556 554 552 550 3861 3859 3857 4853 4854 4855 4856 4857 4858 4859 4840 4841 4842 4843 4844 4845 3420"/>
    </vehicle>

    <vehicle id="1279_0" type="car" depart="21967.00" arrival="22215.00">
        <route edges="4327 4325 4323 4321 4319 4386 762 760 758 756 754 752 750 3682 3680 3678 3676 3674 3672 3670 855 856 857 858 859 860 861 3880 3884 3886 3888 3890 3892 3894 301 296 306 276 278 462 464 1387 466 468 470 472 474 476 478 480 283 285 458 460 2577 2579 274 248 250 252 254 256 258 260 262 264 266 268 270 272 1837 1839 1841 1843 1845 1847 2082 4716 1458 1456 1454 1452 1450 4705 4706 4707 1148 2089 2090 2091 2092 1801 2114 2115 2116 2117 1132 1133 1134 1135 1136 1137 1138 541 542 543 544 545 4111 4112 4113 4114 4115 4116 4117 4118 4119 4120 1129 1130 1131 1090 1091 1092 1093 1094 1095 1096 1097 1098 1099 1100 4156 4157 4158 4159 4162 3396 3398 1278 1276 1274"/>
    </vehicle>

    <vehicle id="1698_0" type="car" depart="22487.00" arrival="22688.00">
        <route edges="314 315 362 360 1039 1037 1035 2577 2579 274 248 250 252 254 256 258 260 262 264 266 268 270 272 1837 1839 1841 1843 1845 1847 2082 4716 1458 1456 1454 1452 1450 4705 4706 4707 1148 2089 2090 2091 2092 1801 2114 2115 2116 2117 1132 1133 1134 1135 1136 1137 1138 541 542 543 544 545 4111 4112 4113 4114 4115 4116 1668 1666 1664 1662 799 800 801 802 803"/>
    </vehicle>

    <vehicle id="2286_0" type="car" depart="22475.00" arrival="22698.00">
        <route edges="2932 3948 3946 3546 3549 3550 3551 3552 3553 3554 4023 3975 3976 3977 3978 3979 3980 1028 1029 1040 1041 2630 2631 723 724 725 726 727 728 729 730 731 732 621 619 617 615 862 863 864 865 866 867 868 869 154 196 3250 813 815 3880 791 792 793 794 795 796 797 798 3669 3671 3673 3675 3677 3679 3681 1619 1621 1623 1625 1627 1628 1626"/>
    </vehicle>

    <vehicle id="2490_0" type="car" depart="22361.00" arrival="22780.00">
        <route edges="3793 3795 2231 2233 2235 2237 1155 920 921 2084 3326 3324 3322 3320 3318 3316 3314 3312 1848 1846 1844 1842 1840 1838 273 271 269 267 265 263 261 259 257 255 253 251 249 275 2580 2578 461 459 286 284 481 479 477 475 473 471 469 467 1388 465 463 279 277 307 297 302 3895 3893 3891 3889 3887 3885 3881 816 814 3251 197 155 193 449 191 189 830 828 826 824 822 1446 1444 2912 2913 2914 2915 2916 2917 2704 2706 2708 2710 2712 2714 2716 2718 2720 2722"/>
    </vehicle>

    <vehicle id="2469_0" type="car" depart="23027.00" arrival="23206.00">
        <route edges="3131 3129 3959 3961 3963 3965 3372 3355 3356 3357 3358 3359 3360 1923 1836 1924 1925 928 930 932 934 701 703 705 707 709 711 713 715 717 1443 1445 821 823"/>
    </vehicle>

    <vehicle id="1742_0" type="car" depart="23209.00" arrival="23339.00">
        <route edges="2066 252 254 256 258 260 262 264 266 268 270 272 1837 1839 1841 1843 1845 1847 2082 4716 1458 1456 1454 3091 3092 3093 3094 3095 3096 3097 492 494 496 498 500 502 3683 3685 3687 3651 2173 2154 1894 1895 1896 241 242 243 4311 4312 4313 4306 4307 4308 5051 5052 5053 5048 5049 5050 4301 4302 4303 2922 2923 2924 2925 394 395 396 397 398 1897 1898 1899 1900 1901 1902 1903 1904 1905 1906 1907 1871 1873 1790 1788 1786 4928 4930"/>
    </vehicle>

    <vehicle id="1647_0" type="car" depart="22681.00" arrival="23431.00">
        <route edges="1020 1022 1024 1026 4625 4627 4629 4631 4633 4635 4637 4639 4641 4643 4645 4647 4649 4651 4653 4655 4657 4659 4661 4663 4665 4667 4669 4671 4673 4675 4677 4679 4681 4683 4685 4687 4689 4691 4692"/>
    </vehicle>

    <vehicle id="675_0" type="car" depart="23345.00" arrival="23539.00">
        <route edges="4308 5051 5052 5053 5048 5049 5050 4301 4302 4303 2922 2923 2924 2925 394 395 396 397 398 221 222 1882 1883 1884 2155 2174 3652 3688 3686 3684 503 501 499 497 495 493 3638 3636 3629 3630 3631 1801 2242 2243 1149 1151 1153 1155 920 921 2084 3326 3324 3322 3320 3318 3316 3314 3312 1848 1846 1844 1842 1840 1838 273 271 269 267 265 263 261 259 257 255 253 251 249 275 2580 2578 461 459 286 284 481 479 477 475 473 471 469 467 1388 465 463 279 277 307 297 302 3895 3893 3891 3889 3887 3885 3881 816 814 3251 197 648 649 650 651 652 653 654 655 656 657 658 668 666 664 662 660 659 661 663"/>
    </vehicle>

    <vehicle id="414_0" type="car" depart="23217.00" arrival="23700.00">
        <route edges="4323 4321 4319 4386 762 760 758 756 754 752 750 3682 3680 3678 3676 3674 3672 3670 855 856 857 858 859 860 861 816 814 3251 197 155 193 449 191 189 830 828 826 824 822 1446 1444 718 716 714 712 710 708 706 704 702 1006 1008 1010 1012 1014 1016 1018 1020 1022 1024 1026 4625 4627 4629 4631 4633 4635 4637 4639 4641 4643"/>
    </vehicle>

    <vehicle id="555_0" type="car" depart="23544.00" arrival="23726.00">
        <route edges="2316 2315 2317 2319 533 535 537 363 365 367 2577 2579 274 248 250 252 254 256 258 260 262 264 266 268 270 272 1837 1839 1841 1843 1845 1847 2082 4716 1458 1456 1454 1452 1450 4705 4706 4707 1148 2089 2090 2091 2092 1801 2114 2115 2116 2117 1132 1689 1690 1691 1692 1693 1694 1397 2296"/>
    </vehicle>

    <vehicle id="224_0" type="car" depart="23239.00" arrival="23793.00">
        <route edges="3017 3019 3021 3023 3025 3027 3029 3031 3033 3035 3037 3039 3041 3043 3045 3047 3049 2880 2878 3965 3372 3355 3356 3357 3358 3359 3360 1923 1836 1924 1925 928 930 932 934 701 703 705 707 709 711 713 715 717 1443 1445 821 823 825 827 829 188 190 448 192 154 196 3250 813 815 3880 3884 3886 3888 3890 3892 3894 301 296 306 276 278 462 464 1387 466 468 470 472 474 476 478 480 283 285 458 460 2577 2579 274 248 250 252 254 256 258 260 262 264 266 268 270 272 1837 1839 1841 1843 1845 1847 2082 4716 1458 1456 1454 1452 1450 4705 4706 4707 1148 2089 2090 2091 2092 1801 2114 2115 2116 2117 1132 1133 1134 1135 1136 1137 1138 541 542 543 544 545 4111 4112 4113 4114 4115 4116 4117 4118 4119 4120 1129 1130 1131 1090 1091 1092 1093 1094 1095 1096 1097 1098 1099 1100 4156 4157 4158 4159 4162 5158 5159 5160 5161 5162 980 982 984 1084 1086 1088 1242 1240 1238 1236 3090 3088 3086 3084 3082 3080 3078 3076"/>
    </vehicle>

    <vehicle id="2307_0" type="car" depart="23474.00" arrival="23803.00">
        <route edges="2677 2675 2674 2676 1257 1259 1261 1263 1265 1267 1269 1271 1273 1275 1277 3399 3397 4163 3632 3633 3634 1161 1162 1163 1164 1165 1166 1167 1168 1169 4160 4161 3901 3902 3903 3904 3905 3906 3896 546 547 548 1143 3639 3640 3641 1449 1451 1453 1455 1457 4717 2083 1848 1846 1844 1842 1840 1838 273 271 269 267 265 263 261 4766 4768 4754 4755"/>
    </vehicle>

    <vehicle id="1431_0" type="car" depart="23482.00" arrival="23997.00">
        <route edges="2292 4761 4755 4769 4767 260 262 264 266 268 270 272 1837 1839 1841 1843 1845 1847 2082 4716 1458 1456 1454 1452 1450 4705 4706 4707 1148 2089 2090 2091 2092 1801 2114 2115 2116 2117 1132 1133 1134 1135 1136 1137 1138 541 542 543 544 545 4111 4112 4113 4114 4115 4116 4117 4118 4119 4120 1129 1130 1131 1090 1091 1092 1093 1094 1095 1096 1097 1098 1099 1100 4156 4157 4158 4159 4162 3396 3398 1278 1276 1274 1272 1270 1268 1266 1264 1262 1260 1258 1256 1254 1128 1234 2761 2759 2757 2755 4055"/>
    </vehicle>

    <vehicle id="1735_0" type="car" depart="23773.00" arrival="24041.00">
        <route edges="3815 3816 3817 3848 3849 296 306 276 278 462 464 1387 466 468 470 472 474 476 478 480 283 285 458 460 2577 2579 274 248 250 252 254 256 258 260 262 264 266 268 270 272 1837 1839 1841 1843 1845 1847 2082 4716 1458 1456 1454 1452 1450 4705 4706 4707 1148 2089 2090 2091 2092 1801 2114 2115 2116 2117 1132 1133 1134 1135 1136 1137 1138 541 542 543 544 545 4111 4112 4113 4114 4115 4116 4117 4118 4119 4120 1129 1130 1131 1090 1091 1092 1093 1094 1095 1096 1097 1098 1099 1100 4156 4157 4158 4159 4162 5158 5159 5160 5161 5162 980 982 984 1084 1086 1088 1107 1109 1111 1113 2013 2015 2017 2019 2020 2018"/>
    </vehicle>

    <vehicle id="2006_0" type="car" depart="23808.00" arrival="24107.00">
        <route edges="3276 3277 3278 3279 3280 3281 3282 3283 3284 3266 562 560 558 556 554 552 550 3705 3707 3709 3711 3713 3715 3942 3468 3466 3464 3462 3460 3458 603 604 605 606 607 3754 3897 3898 3899 3900 887 888 891 892 893 3252 3253 3254 3255 3256 3257 4063 4064 4065 4066 4067 4068 4069 4070 659 661 663 665 667 897 898 899 900 901 902 903 3250 813 815 3880 791 792 793 794 795 796 797 798 3669 3671 3673 3675 3677 3679 3681 1619 1621 1623 1625 1627 1629 1631 1633 1635 1636"/>
    </vehicle>

    <vehicle id="1896_0" type="car" depart="24067.00" arrival="24139.00">
        <route edges="1843 1845 1847 2082 4716 1458 1456 1454 3091 3092 3093 3094 3095 3096 3097 492 494 496 498 500 502 3683 3685 3687 3651 2173 2154 1894 1895 1896 241 242 243 4311 4312 4313 4306 4307 4308 5051"/>
    </vehicle>

    <vehicle id="2491_0" type="car" depart="23423.00" arrival="24165.00">
        <route edges="1502 5143 5141 5139 5137 5135 5133 5131 3848 3849 302 3895 3893 3891 3889 3887 3885 3881 816 814 3251 197 155 193 449 191 189 830 828 826 824 822 1446 1444 718 716 714 712 710 708 706 704 702 1006 1008 1010 1012 1014 1016 1018 1020 1022 1024 1026 4625 4627 4629 4631 4633 4635 4637 4639 4641 4643 4645 4647 4649 4651 4653 4655 4657 4659 4661 4663 4665 4667 4669 4671 4673"/>
    </vehicle>

    <vehicle id="1487_0" type="car" depart="23592.00" arrival="24270.00">
        <route edges="1110 1108 1089 1087 1085 985 983 981 996 998 3399 3397 4163 3632 3633 3634 1161 1162 1163 1164 1165 1166 1167 1168 1169 4160 4161 3901 3902 3903 3904 3905 3906 3896 546 547 548 1143 3639 3640 3641 1449 1451 1453 1455 1457 4717 2083 1848 1846 1844 1842 1840 1838 273 271 269 267 265 263 261 259 257 255 253 251 249 275 2580 2578 461 459 286 284 481 479 477 475 473 471 469 467 1388 465 463 279 277 307 297 302 3895 3893 3891 3889 3887 3885 3881 816 814 3251 197 155 193 449 191 189 830 828 826 824 822 1446 1444 718 716 714 712 710 708 706 704 702 935 933 931 929 1460 1829 3361 3362 3363 3364 3365 3366 3367 3368 3369 3370 3371 3966 2877 2879 2881 2883 2885 2790 2791 2792 2793 2806 2807 4584 4582 4580 1723 1724"/>
    </vehicle>

    <vehicle id="2498_0" type="car" depart="24245.00" arrival="24317.00">
        <route edges="3327 2239 2240 2230 1190 1188 1160 1158 1156 2238 2236 1865 1867"/>
    </vehicle>

    <vehicle id="503_0" type="car" depart="24144.00" arrival="24351.00">
        <route edges="3081 3083 3085 3087 3089 1235 1237 1239 1241 389 387 385 383 381 379 377 375 3272 3273 3274 3275 3276 3277 3278 3279 3280 3281 3282 3283 3284 3266 562 560 558"/>
    </vehicle>

    <vehicle id="1532_0" type="car" depart="23804.00" arrival="24398.00">
        <route edges="2884 2882 2880 2878 3965 3372 3355 3356 3357 3358 3359 3360 1923 1836 1924 1925 928 930 932 934 701 703 705 707 709 711 713 715 717 1443 1445 821 823 825 827 829 188 190 448 192 154 196 3250 813 815 3880 3884 3886 3888 3890 3892 3894 301 296 306 276 278 462 464 1387 466 468 470 472 474 476 478 480 283 285 458 460 2577 2579 274 248 250 252 254 256 258 260 262 264 266 268 270 272 1837 1839 1841 1843 1845 1847 2082 4716 1458 1456 1454 1452 1450 4705 4706 4707 1148 2089 2090 2091 2092 1801 2114 2115 2116 2117 1132 1133 1134 1135 1136 1137 1138 541 542 543 544 545 4111 4112 4113 4114 4115 4116 4117 4118 4119 4120 1129 1130 1131 1090 1091 1092 1093 1094 1095 1096 1097 1098 1099 1100 4156 4157 4158 4159 4162 5158 5159 5160 5161 5162 980 982 984 1084 1086 1088 1107 1109 1111 2971 2973 2975 2703 2701 2699"/>
    </vehicle>

    <vehicle id="2194_0" type="car" depart="24212.00" arrival="24537.00">
        <route edges="3913 3915 3917 3919 3912 3910 3680 3678 3676 3674 3672 3670 855 856 857 858 859 860 861 3880 3884 3886 3888 3890 3892 3894 301 296 306 276 278 3249 3247 3245 3243 3241 3239 3237 3235 3766 2284 2286"/>
    </vehicle>

    <vehicle id="2224_0" type="car" depart="24199.00" arrival="24556.00">
        <route edges="3880 3884 3886 3888 3890 3892 3894 301 296 306 276 278 462 464 1387 466 468 470 472 474 476 478 480 283 285 458 460 2577 2579 274 248 250 252 254 256 258 260 262 264 266 268 270 272 1837 1839 1841 1843 1845 1847 2082 4716 1458 1456 1454 1452 1450 4705 4706 4707 1148 2089 2090 2091 2092 1801 2114 2115 2116 2117 1132 1689 1690 1691 1692 1693 1869 1394 1395 3265 4147 4148 4149 4150 4151 4206 4204 4202 4200 3942 3468 3466 3464 3462 3460 3458 603"/>
    </vehicle>

    <vehicle id="1638_0" type="car" depart="24472.00" arrival="24568.00">
        <route edges="4736 4738 244 3455 3517 3518 4990 4991 3515 3516 4171 4169 4167 4165 4154 4155 1165 1166 1167 1168 1169 1939 1940 1941 1090 1091 1092 4196 4197 4198 3292 3290 790 788 5037 5035"/>
    </vehicle>

    <vehicle id="1661_0" type="car" depart="24633.00" arrival="24790.00">
        <route edges="2125 2964 2962 3585 3587 3589 3591 3593 3595 3597 2147 2148 2149 2219 2222 2223 2224 2225 1871 1873 1875 1877 1965 1963 1961 1855 1856 1857 1858 1859 1860 1861 1862 394 395 396 397 398 221 222 1882 1883 1884 2155 2174 3652 3688 3686 3684 503 501 499 497 495 493 3638 3636 3629 3630 3631 1801 2114 2115 2116 2117 1132 1689 1690 1691 1692 1693 1869"/>
    </vehicle>

    <vehicle id="1031_0" type="car" depart="24666.00" arrival="24830.00">
        <route edges="3274 3275 3276 4860 4862 4794 4796 4798 4800 4802 4804 4806 4808 4810 4812 4814 4816 4818 3285 3287 3289 3291 1279 1280 1098 1099 1100 1183 1184 1185 1186 1161 1162 1163 1164 1165 1166 1167 1168 1169 4160 4161 3901 3902 3903 3904 3905 3906 3896 546 547 548 1143 1144 1145 1146 1147 1148 218 219 220 3635 3637 492 494 496 498 500 502 3683 3685 3687 3651 2173 2154 1894 1895 1896 241 242 243 4311 4312 4313 4306 4307 4308 3258 3259 3260 1974 1975 3993 3994 5073 5074"/>
    </vehicle>

    <vehicle id="1344_0" type="car" depart="24159.00" arrival="24914.00">
        <route edges="3018 3016 3014 3012 3010 3008 3006 3004 3047 3049 2880 2878 3965 3372 3355 3356 3357 3358 3359 3360 1923 1836 1924 1925 928 930 932 934 701 703 705 707 709 711 713 715 717 1443 1445 821 823 825 827 829 188 190 448 192 154 196 3250 813 815 3880 3884 3886 3888 3890 3892 3894 301 296 306 276 278 462 464 1387 466 468 470 472 474 476 478 480 283 285 458 460 2577 2579 274 248 250 252 254 256 258 260 262 264 266 268 270 272 1837 1839 1841 1843 1845 1847 2082 4716 1458 1456 1454 1452 1450 4705 4706 4707 1148 2089 2090 2091 2092 1801 2114 2115 2116 2117 1132 1133 1134 1135 1136 1137 1138 541 542 543 544 545 4111 4112 4113 4114 4115 4116 4117 4118 4119 4120 1129 1130 1131 1090 1091 1092 1093 1094 1095 1096 1097 1098 1099 1100 4156 4157 4158 4159 4162 3396 3398 1278 1276 1274 1272 1270 1268 1266 1264 1262 1260 1258 1256 1254 1128 1234 1232 4034 4035"/>
    </vehicle>

    <vehicle id="1654_0" type="car" depart="24562.00" arrival="24933.00">
        <route edges="4035 1231 1233 1127 1253 1255 1257 1259 1261 1263 1265 1267 1269 1271 1273 1275 1277 3399 3397 4163 3632 3633 3634 1161 1162 1163 1164 1165 1166 1167 1168 1169 4160 4161 3901 3902 3903 3904 3905 3906 3896 546 547 548 1143 3639 3640 3641 1449 1451 1453 1455 1457 4717 2083 1848 1846 1844 1842 1840 1838 273 271 269 267 265 263 261 4766 409 4777 4775 2161 2159 2157 2869 4971 3520 2650 2652 2654 2656 2658 2660 2662 2664 3762"/>
    </vehicle>

    <vehicle id="1040_0" type="car" depart="24518.00" arrival="24975.00">
        <route edges="4047 4045 4043 4041 4039 4037 130 1229 1231 1233 1127 1253 1255 1257 1259 1261 1263 1265 1267 1269 1271 1273 1275 1277 3399 3397 4163 3632 3633 3634 1161 1162 1163 1164 1165 1166 1167 1168 1169 4160 4161 3901 3902 3903 3904 3905 3906 3896 546 547 548 1143 3639 3640 3641 1449 1451 1453 1455 1457 4717 2083 1848 1846 1844 1842 1840 1838 273 271 269 267 265 263 261 259 257 255 253 251 249 275 2580 2578 461 459 286 284 481 479 477 475 473 471 469 467 1388 465 463 279 277 307 297 302 3895 3893 3891 3889 3887 3885 791 792 793 794 795 796 797 798 3669 3671 3673 3675 3677 3679 3681 1619 1621 1623 1625 1627 1629 1631 1633 1635 1511"/>
    </vehicle>

    <vehicle id="558_0" type="car" depart="24969.00" arrival="25181.00">
        <route edges="189 188 190 448 192 154 196 3250 813 815 3880 3884 3886 3888 3890 3892 3894 301 296 306 276 278 462 464 1387 466 468 470 472 474 476 478 480 283 285 458 460 2577 2579 274 248 250 252 254 256 258 260 262 264 266 268 270 272 1837 1839 1841 1843 1845 1847 2082 4716 1458 1456 1454 1452 1450 4705 4706 4707 1148 2089 2090 2091 2092 1801 2114 2115 2116 2117 1132 1133 1134 1135 1136 1137 1138 541 542 543 544 545 4111 4112 4113 4114 4115 4116 1668 1666 1664 1663 1665"/>
    </vehicle>

    <vehicle id="2275_0" type="car" depart="25089.00" arrival="25262.00">
        <route edges="1797 1799 1800 1798 1796 1248 1246 1244 333 331 329 40 38 36 34 32 30 28 26 24 22 20 3642 3643 3644 3645 3646 3647 3648"/>
    </vehicle>

    <vehicle id="1699_0" type="car" depart="25069.00" arrival="25308.00">
        <route edges="1245 1247 1248 1246 1244 333 331 329 327 325 323 321 319 317 315 362 360 1039 1037 1035 2577 2579 274 248 250 252 254 256 258 260 262 264 266 268 270 272 1837 1839 1841 1843 1845 1847 2082 4716 1458 1456 1454 3091 3092 3093 3094 3095 3096 3097 492 494 496 498 500 502 3683 3685 3687 3651 2173 2174 3652 3688 3686 3684"/>
    </vehicle>

    <vehicle id="1101_0" type="car" depart="24892.00" arrival="25418.00">
        <route edges="3871 3869 3867 3865 3863 4552 3061 3546 3549 3550 3551 3552 3553 3554 4023 3975 3976 3977 3978 3979 3980 1028 1029 1040 1041 2630 2631 723 724 725 726 727 728 729 730 731 732 621 619 617 615 862 863 864 865 866 867 868 869 154 196 3250 813 815 3880 3884 3886 3888 3890 3892 3894 301 296 306 276 278 462 464 1387 466 468 470 472 474 476 478 480 283 285 458 460 2577 2579 274 248 250 252 254 256 258 260 262 264 266 268 270 272 1837 1839 1841 1843 1845 1847 2082 4716 1458 1456 1454 1452 1450 4705 4706 4707 1148 2089 2090 2091 2092 1801 2114 2115 2116 2117 1132 1133 1134 1135 1136 1137 1138 541 542 543 544 545 4111 4112 4113 4114 4115 4116 4117 4118 4119 4120 1129 1130 1131 1090 1091 1092 1093 1094 1095 1096 1097 1098 1099 1100 4156 4157 4158 4159 4162 5158 5159 5160 5161 5162 980 982 984 1084 1086 1088 1107 1109 1111 1113 2013 2015 2017 2019"/>
    </vehicle>

    <vehicle id="1008_0" type="car" depart="25137.00" arrival="25440.00">
        <route edges="2605 2603 1219 1828 1252 1250 1248 1246 1244 333 331 329 327 325 323 321 319 317 315 362 360 1039 1037 1035 2577 2579 274 248 250 252 254 256 258 260 262 264 266 268 270 272 1837 1839 1841 1843 1845 1847 2082 4716 1458 1456 1454 3091 3092 3093 3094 3095 3096 3097 492 494 496 498 500 502 3683 3685 3687 3651 2173 2154 1894 1895 1896 241 242 243 4311 4312 4313 4306 4307 4308 3258 3259 3260 1974 1975 3993 3994 3995 3996 4212 4210 4208 345 346 347 5042"/>
    </vehicle>

    <vehicle id="654_0" type="car" depart="25064.00" arrival="25449.00">
        <route edges="2742 2744 3196 2868 2866 1255 1257 1259 1261 1263 1265 1267 1269 1271 1273 1275 1277 3399 3397 4163 3632 3633 3634 1161 1162 1163 1164 1165 1166 1167 1168 1169 4160 4161 3901 3902 3903 3904 3905 3906 3896 546 547 548 1143 3639 3640 3641 1449 1451 1453 1455 1457 4717 2083 1848 1846 1844 1842 1840 1838 273 271 269 267 265 263 261 259 257 255 253 251 249 275 2580 2578 1034 1036 1038 359 361 314 316 318 320 322 877 879 881 4360 4362 4364 4366"/>
    </vehicle>

    <vehicle id="1490_0" type="car" depart="24967.00" arrival="25454.00">
        <route edges="1652 1650 1648 1646 1644 1642 1640 1638 1636 1634 1632 1630 1628 1626 1624 1622 1620 3682 3680 3678 3676 3674 3672 3670 855 856 857 858 859 860 861 3880 3884 3886 3888 3890 3892 3894 301 296 306 276 278 462 464 1387 466 468 470 472 474 476 478 480 283 285 458 460 2577 2579 274 248 250 252 254 256 258 260 262 264 266 268 270 272 1837 1839 1841 1843 1845 1847 2082 4716 1458 1456 1454 1452 1450 4705 4706 4707 1148 2089 2090 2091 2092 1801 2114 2115 2116 2117 1132 1133 1134 1135 1136 1137 1138 541 542 543 544 545 4111 4112 4113 4114 4115 4116 4117 4118 4119 4120 1129 1130 1131 1090 1091 1092 1093 1094 1095 1096 1097 1098 1099 1100 4156 4157 4158 4159 4162 5158 5159 5160 5161 5162 980 982 984 1084 1086 1088 1107 1109 1111 2971 2973 2975 2703 2701 2699 2697 2695"/>
    </vehicle>

    <vehicle id="2488_0" type="car" depart="23946.00" arrival="25480.00">
        <route edges="3076 1229 1231 1233 1127 1253 1255 1257 1259 1261 1263 1265 1267 1269 1271 1273 1275 1277 3399 3397 4163 3632 3633 3634 1161 1162 1163 1164 1165 1166 1167 1168 1169 4160 4161 3901 3902 3903 3904 3905 3906 3896 546 547 548 1143 3639 3640 3641 1449 1451 1453 1455 1457 4717 2083 1848 1846 1844 1842 1840 1838 273 271 269 267 265 263 261 259 257 255 253 251 249 275 2580 2578 461 459 286 284 481 479 477 475 473 471 469 467 1388 465 463 279 277 307 297 302 3895 3893 3891 3889 3887 3885 3881 816 814 3251 197 155 193 449 191 189 830 828 826 824 822 1446 1444 718 716 714 712 710 708 706 704 702 1006 1008 1010 1012 1014 1016 1018 1020 1022 1024 1026 4625 4627 4629 4631 4633 4635 4637 4639 4641 4643 4645 4647 4649 4651 4653 4655 4657 4659 4661 4663 4665 4667 4669 4671 4673 4675 4677 4679 4681 4683 4685 4687 4689 4691 4692 4690 4688 4686 4684 4682 4680 4678 4676 4674 4672 4670 4668 4666 4664 4662 4660 4658 4656 4654 4652 4650"/>
    </vehicle>

    <vehicle id="794_0" type="car" depart="25336.00" arrival="25501.00">
        <route edges="4185 4183 4181 4520 4518 4516 4514 1267 1269 1271 1273 1275 1277 3399 3397 4163 3632 3633 3634 1161 1162 4152 4153 4164 4166 4167 4165"/>
    </vehicle>

    <vehicle id="1585_0" type="car" depart="25171.00" arrival="25513.00">
        <route edges="3802 3803 3804 3805 3806 3807 3808 1392 1390 279 277 307 297 302 3895 3893 3891 3889 3887 3885 3881 816 814 3251 197 155 193 449 191 189 830 828 826 824 822 1446 1444 718 716 714 712 710 708 706 704 702 935 933 931 929 1460 1829 1830 1831 1832 1833 1834 522 520 690 692 622 624 626 628 630 632 634 636 638 640 642 644 646 697 695"/>
    </vehicle>

    <vehicle id="2021_0" type="car" depart="25083.00" arrival="25554.00">
        <route edges="103 101 99 97 95 93 92 94 96 98 100 102 104 106 108 110 112 114 116 118 120 2980 2978 2976 2974 2972 1112 1110 1108 1089 1087 1085 985 983 981 996 998 3399 3397 4163 3632 3633 3634 1161 1162 1163 1164 1165 1166 1167 1168 1169 1939 1940 1941 1090 1091 1092 4196 4197 4198 3292 3290 3288 3286 4820"/>
    </vehicle>

    <vehicle id="2320_0" type="car" depart="25089.00" arrival="25559.00">
        <route edges="391 404 4168 4170 3513 3514 4972 4973 4974 4975 4976 4977 194 195 3508 3509 3510 3511 3512 3497 3498 3456 245 4739 4737 4735 4733 4731 4729 4727 4725 4723 4721 4719 4717 2083 1848 1846 1844 1842 1840 1838 273 271 269 267 265 263 261 259 257 255 253 251 249 275 2580 2578 461 459 286 284 481 479 477 475 473 471 469 467 1388 465 463 279 277 307 297 302 3895 3893 3891 3889 3887 3885 3881 816 814 3251 197 155 193 449 191 189 830 828 826 824 822 1446 1444 718 716 714 712 710 708 706 704 702 935 933 931 929 1460 1829 1830 1831 1832 1833 1834 522 520 518 516 505 514 512 3067 3069 3071 3073"/>
    </vehicle>

    <vehicle id="1767_0" type="car" depart="25112.00" arrival="25569.00">
        <route edges="3154 3155 2939 2941 2943 1122 1120 1118 1116 1114 1112 1110 1108 1089 1087 1085 985 983 981 996 998 3399 3397 4163 3632 3633 3634 1161 1162 1163 1164 1165 1166 1167 1168 1169 4160 4161 3901 3902 3903 3904 3905 3906 3896 546 547 548 1143 3639 3640 3641 1449 1451 1453 1455 1457 4717 2083 1848 1846 1844 1842 1840 1838 273 271 269 267 265 263 261 259 257 255 253 251 249 275 2580 2578 461 459 286 284 481 479 477 475 473 471 469 467 1388 465 463 279 277 307 297 302 3895 3893 3891 3889 3887 3885 3881 816 814 3251 197 155 193 449 191 189 830 828 826 824 822 1446 1444 718 716 714 712 710 708 706 704 702 935 933 931 929 1460 1829 1830 1916 1917 1918 1919 1920 1921"/>
    </vehicle>

    <vehicle id="1342_0" type="car" depart="25531.00" arrival="25668.00">
        <route edges="2401 2402 2400 2398 2396 1608 1606 1604 1602 3885 3881 816 814 870 871 872 873 874 875 876 4339 4337 4335 4333 4331 4329 4387 4389 4391 4393 4395 4397 4399 4401 4403 4405 4407 4409"/>
    </vehicle>

    <vehicle id="2389_0" type="car" depart="25606.00" arrival="25745.00">
        <route edges="1478 1477 466 468 470 472 474 476 478 480 283 285 458 460 2577 2579 274 248 250 252 254 256 258 260 262 264 266 268 270 272 1837 1839 1841 1843 1845 1847 2082 4716 4717"/>
    </vehicle>

    <vehicle id="207_0" type="car" depart="25656.00" arrival="25810.00">
        <route edges="4178 4192 4194 1273 1275 1277 999 997 980 982 984 3180 3182 3184 3186 3188 3190 3192 3124 3126"/>
    </vehicle>

    <vehicle id="2492_0" type="car" depart="25653.00" arrival="25830.00">
        <route edges="324 325 323 321 319 317 315 362 360 1039 1037 1035 2577 2579 274 248 250 252 254 256 258 260 262 264 266 268 270 272 1837 1839 1841 1843 1845 1847 2082 4716 4718 4720 4722 4724 4726 4728 4730 4732 4734 4736 4738 244 3455 3517 3518 4990 4991 3515 3516 4171 4169 4079 4081 4083"/>
    </vehicle>

    <vehicle id="1657_0" type="car" depart="25721.00" arrival="25840.00">
        <route edges="2691 2690 2650 2652 2654 2656 2658 2660 2662 2664 3762 3760 3789 3790 531 533 535 537 363 365 367 461 459 286 284 481 479 477 475 473 471 469 467 1388 465 463 1389 1391 19 3847 3845 3843"/>
    </vehicle>

    <vehicle id="1319_0" type="car" depart="25494.00" arrival="25878.00">
        <route edges="5053 5048 5049 5050 4301 4302 4303 2922 2923 2924 2925 394 395 396 397 398 221 222 1882 1883 1884 2155 2174 3652 3688 3686 3684 503 501 499 497 495 493 3638 3636 3629 3630 3631 1801 2114 2115 2116 2117 1132 1133 1134 1135 1136 1137 1138 541 542 543 544 545 4111 4112 4113 4114 4115 4116 4117 4118 4119 4120 1129 1130 1131 1090 1091 1092 1093 1094 1095 1096 1097 1098 1099 1100 4156 4157 4158 4159 4162 5158 5159 5160 5161 5162 980 982 984 1084 1086 1088 1107 1109 1111 1113 1115 1117 1119 1121 2944 2942 2940 2938 2936 2934 3102 3103"/>
    </vehicle>

    <vehicle id="443_0" type="car" depart="25473.00" arrival="25911.00">
        <route edges="2058 2056 2054 2052 2050 2048 3072 3070 3068 511 513 504 515 517 519 521 700 1881 1835 1836 1924 1925 928 930 932 934 701 703 705 707 709 711 713 715 717 1443 1445 821 823 825 827 829 188 190 448 192 154 196 3250 813 815 3880 791 792 793 794 795 796 797 798 3669 3671 3673 3675 3677 3679 3681 1619 1621 1623 1624 1622"/>
    </vehicle>

    <vehicle id="519_0" type="car" depart="25766.00" arrival="25923.00">
        <route edges="1070 1071 1072 1393 1101 1102 1103 1104 1105 1106 1137 1138 541 542 543 544 545 4111 4112 4113 4114 4115 4116 4117 4118 4119 4120 1129"/>
    </vehicle>

    <vehicle id="1748_0" type="car" depart="25152.00" arrival="25948.00">